  Position data
  
      22 atoms
  
  1 atom types
  
 0.0   2.5560000 xlo xhi
 0.0  11.9886000 ylo yhi
 0.0   8.4772000 zlo zhi
  
  Masses
  
  1 63.5460000
  
  Atoms
  
      1  1   0.0000000  11.9886036   0.0000000
      2  1   1.2779894   2.1797461   0.3853283
      3  1   2.5559789   4.3594922   0.7706566
      4  1   1.2779894   6.5392383   1.1559849
      5  1   0.0000000   8.7189845   1.5413133
      6  1   1.2779894  10.8987306   1.9266416
      7  1   2.5559789   1.0898731   2.3119699
      8  1   1.2779894   3.2696192   2.6972982
      9  1   0.0000000   5.4493653   3.0826265
     10  1   1.2779894   7.6291114   3.4679548
     11  1   2.5559789   9.8088575   3.8532831
     12  1   1.2779894  11.9886036   4.2386115
     13  1   0.0000000   2.1797461   4.6239398
     14  1   1.2779894   4.3594922   5.0092681
     15  1   2.5559789   6.5392383   5.3945964
     16  1   1.2779894   8.7189845   5.7799247
     17  1   0.0000000  10.8987306   6.1652530
     18  1   1.2779894   1.0898731   6.5505813
     19  1   2.5559789   3.2696192   6.9359097
     20  1   1.2779894   5.4493653   7.3212380
     21  1   0.0000000   7.6291114   7.7065663
     22  1   1.2779894   9.8088575   8.0918946
