  Position data
  
     224 atoms
  
  3 atom types
  
 0.0  30.0000000 xlo xhi
 0.0  34.0863991 ylo yhi
 0.0  15.0000000 zlo zhi
  
  Masses
  
