  Position data
  
       6 atoms
  
  1 atom types
  
 0.0   6.2608000 xlo xhi
 0.0   4.4271000 ylo yhi
 0.0   2.5560000 zlo zhi
  
  Masses
  
  1   63.546000
  
  Atoms
  
      1  1   2.0869480   1.4756951   0.0000000
      2  1   2.0869480   3.6892377   1.2779894
      3  1   4.1738960   0.7378475   1.2779894
      4  1   0.0000000   2.2135426   1.2779894
      5  1   4.1738960   2.9513902   2.5559789
      6  1   0.0000000   0.0000000   2.5559789
