ITEM: TIMESTEP
0
ITEM: NUMBER OF ATOMS
1408
ITEM: BOX BOUNDS pp pp pp
0.0000000000000000e+00 7.0000000000000000e+01
0.0000000000000000e+00 1.2782530210000000e+02
0.0000000000000000e+00 1.0000000000000000e+01
ITEM: ATOMS id type xs ys zs fx fy fz 
1 1 0.161116 0.00558241 0.5 0 0 0 
21 1 0.143545 0.011138 0.5 0 0 0 
42 1 0.143545 0.0222491 0.5 0 0 0 
821 2 0.129441 0.00667876 0.5 1.07322 0.619625 0 
823 2 0.129441 0.0267083 0.5 1.07322 -0.619625 0 
63 1 0.161116 0.0278046 0.5 0 0 0 
83 1 0.161116 0.0389157 0.5 0 0 0 
103 1 0.143545 0.0444713 0.5 0 0 0 
825 2 0.129441 0.0400121 0.5 1.07322 0.619627 0 
124 1 0.143545 0.0555824 0.5 0 0 0 
145 1 0.161116 0.061138 0.5 0 0 0 
165 1 0.161116 0.0722491 0.5 0 0 0 
185 1 0.143545 0.0778046 0.5 0 0 0 
827 2 0.129441 0.0600416 0.5 1.07322 -0.619627 0 
829 2 0.129441 0.0733454 0.5 1.07323 0.61963 0 
206 1 0.143545 0.0889157 0.5 0 0 0 
227 1 0.161116 0.0944713 0.5 0 0 0 
247 1 0.161116 0.105582 0.5 0 0 0 
831 2 0.129441 0.093375 0.5 1.07323 -0.61963 0 
833 2 0.129441 0.106679 0.5 1.07322 0.619624 0 
267 1 0.143545 0.111138 0.5 0 0 0 
288 1 0.143545 0.122249 0.5 0 0 0 
309 1 0.161116 0.127805 0.5 0 0 0 
835 2 0.129441 0.126708 0.5 1.07322 -0.619624 0 
329 1 0.161116 0.138916 0.5 0 0 0 
349 1 0.143545 0.144471 0.5 0 0 0 
370 1 0.143545 0.155582 0.5 0 0 0 
391 1 0.161116 0.161138 0.5 0 0 0 
837 2 0.129441 0.140012 0.5 1.07323 0.619638 0 
839 2 0.129441 0.160042 0.5 1.07322 -0.619622 0 
841 2 0.161116 0.170056 0.5 0 -1.23925 0 
935 2 0.161116 0.829997 0.5 0 1.23924 0 
411 1 0.161116 0.838916 0.5 0 0 0 
431 1 0.143545 0.844471 0.5 0 0 0 
452 1 0.143545 0.855582 0.5 0 0 0 
949 2 0.129441 0.840012 0.5 1.07322 0.619622 0 
951 2 0.129441 0.860042 0.5 1.07322 -0.619622 0 
473 1 0.161116 0.861138 0.5 0 0 0 
493 1 0.161116 0.872249 0.5 0 0 0 
513 1 0.143545 0.877805 0.5 0 0 0 
953 2 0.129441 0.873345 0.5 1.07322 0.619622 0 
534 1 0.143545 0.888916 0.5 0 0 0 
555 1 0.161116 0.894471 0.5 0 0 0 
575 1 0.161116 0.905582 0.5 0 0 0 
595 1 0.143545 0.911138 0.5 0 0 0 
955 2 0.129441 0.893375 0.5 1.07322 -0.619622 0 
957 2 0.129441 0.906679 0.5 1.07322 0.619622 0 
616 1 0.143545 0.922249 0.5 0 0 0 
637 1 0.161116 0.927805 0.5 0 0 0 
657 1 0.161116 0.938916 0.5 0 0 0 
959 2 0.129441 0.926708 0.5 1.07322 -0.619623 0 
961 2 0.129441 0.940012 0.5 1.07322 0.619622 0 
677 1 0.143545 0.944471 0.5 0 0 0 
698 1 0.143545 0.955582 0.5 0 0 0 
719 1 0.161116 0.961138 0.5 0 0 0 
963 2 0.129441 0.960042 0.5 1.07322 -0.619622 0 
739 1 0.161116 0.972249 0.5 0 0 0 
759 1 0.143545 0.977805 0.5 0 0 0 
780 1 0.143545 0.988916 0.5 0 0 0 
801 1 0.161116 0.994471 0.5 0 0 0 
965 2 0.129441 0.973345 0.5 1.07322 0.619622 0 
967 2 0.129441 0.993375 0.5 1.07322 -0.619622 0 
2 1 0.196259 0.00558241 0.5 0 0 0 
22 1 0.178687 0.011138 0.5 0 0 0 
23 1 0.21383 0.011138 0.5 0 0 0 
43 1 0.178687 0.0222491 0.5 0 0 0 
44 1 0.21383 0.0222491 0.5 0 0 0 
3 1 0.231402 0.00558241 0.5 0 0 0 
4 1 0.266545 0.00558241 0.5 0 0 0 
24 1 0.248973 0.011138 0.5 0 0 0 
45 1 0.248973 0.0222491 0.5 0 0 0 
5 1 0.301687 0.00558241 0.5 0 0 0 
25 1 0.284116 0.011138 0.5 0 0 0 
26 1 0.319259 0.011138 0.5 0 0 0 
46 1 0.284116 0.0222491 0.5 0 0 0 
47 1 0.319259 0.0222491 0.5 0 0 0 
64 1 0.196259 0.0278046 0.5 0 0 0 
84 1 0.196259 0.0389157 0.5 0 0 0 
104 1 0.178687 0.0444713 0.5 0 0 0 
105 1 0.21383 0.0444713 0.5 0 0 0 
65 1 0.231402 0.0278046 0.5 0 0 0 
66 1 0.266545 0.0278046 0.5 0 0 0 
85 1 0.231402 0.0389157 0.5 0 0 0 
86 1 0.266545 0.0389157 0.5 0 0 0 
106 1 0.248973 0.0444713 0.5 0 0 0 
67 1 0.301687 0.0278046 0.5 0 0 0 
87 1 0.301687 0.0389157 0.5 0 0 0 
107 1 0.284116 0.0444713 0.5 0 0 0 
108 1 0.319259 0.0444713 0.5 0 0 0 
125 1 0.178687 0.0555824 0.5 0 0 0 
126 1 0.21383 0.0555824 0.5 0 0 0 
146 1 0.196259 0.061138 0.5 0 0 0 
166 1 0.196259 0.0722491 0.5 0 0 0 
186 1 0.178687 0.0778046 0.5 0 0 0 
187 1 0.21383 0.0778046 0.5 0 0 0 
127 1 0.248973 0.0555824 0.5 0 0 0 
147 1 0.231402 0.061138 0.5 0 0 0 
148 1 0.266545 0.061138 0.5 0 0 0 
167 1 0.231402 0.0722491 0.5 0 0 0 
168 1 0.266545 0.0722491 0.5 0 0 0 
188 1 0.248973 0.0778046 0.5 0 0 0 
128 1 0.284116 0.0555824 0.5 0 0 0 
129 1 0.319259 0.0555824 0.5 0 0 0 
149 1 0.301687 0.061138 0.5 0 0 0 
169 1 0.301687 0.0722491 0.5 0 0 0 
189 1 0.284116 0.0778046 0.5 0 0 0 
190 1 0.319259 0.0778046 0.5 0 0 0 
207 1 0.178687 0.0889157 0.5 0 0 0 
208 1 0.21383 0.0889157 0.5 0 0 0 
228 1 0.196259 0.0944713 0.5 0 0 0 
248 1 0.196259 0.105582 0.5 0 0 0 
209 1 0.248973 0.0889157 0.5 0 0 0 
229 1 0.231402 0.0944713 0.5 0 0 0 
230 1 0.266545 0.0944713 0.5 0 0 0 
249 1 0.231402 0.105582 0.5 0 0 0 
250 1 0.266545 0.105582 0.5 0 0 0 
210 1 0.284116 0.0889157 0.5 0 0 0 
211 1 0.319259 0.0889157 0.5 0 0 0 
231 1 0.301687 0.0944713 0.5 0 0 0 
251 1 0.301687 0.105582 0.5 0 0 0 
268 1 0.178687 0.111138 0.5 0 0 0 
269 1 0.21383 0.111138 0.5 0 0 0 
289 1 0.178687 0.122249 0.5 0 0 0 
290 1 0.21383 0.122249 0.5 0 0 0 
310 1 0.196259 0.127805 0.5 0 0 0 
270 1 0.248973 0.111138 0.5 0 0 0 
291 1 0.248973 0.122249 0.5 0 0 0 
311 1 0.231402 0.127805 0.5 0 0 0 
312 1 0.266545 0.127805 0.5 0 0 0 
271 1 0.284116 0.111138 0.5 0 0 0 
272 1 0.319259 0.111138 0.5 0 0 0 
292 1 0.284116 0.122249 0.5 0 0 0 
293 1 0.319259 0.122249 0.5 0 0 0 
313 1 0.301687 0.127805 0.5 0 0 0 
330 1 0.196259 0.138916 0.5 0 0 0 
350 1 0.178687 0.144471 0.5 0 0 0 
351 1 0.21383 0.144471 0.5 0 0 0 
371 1 0.178687 0.155582 0.5 0 0 0 
372 1 0.21383 0.155582 0.5 0 0 0 
392 1 0.196259 0.161138 0.5 0 0 0 
331 1 0.231402 0.138916 0.5 0 0 0 
332 1 0.266545 0.138916 0.5 0 0 0 
352 1 0.248973 0.144471 0.5 0 0 0 
373 1 0.248973 0.155582 0.5 0 0 0 
393 1 0.231402 0.161138 0.5 0 0 0 
394 1 0.266545 0.161138 0.5 0 0 0 
333 1 0.301687 0.138916 0.5 0 0 0 
353 1 0.284116 0.144471 0.5 0 0 0 
354 1 0.319259 0.144471 0.5 0 0 0 
374 1 0.284116 0.155582 0.5 0 0 0 
375 1 0.319259 0.155582 0.5 0 0 0 
395 1 0.301687 0.161138 0.5 0 0 0 
842 2 0.196259 0.170056 0.5 -1.30583e-07 -1.23925 0 
843 2 0.231402 0.170056 0.5 1.30583e-06 -1.23925 0 
844 2 0.266545 0.170056 0.5 -3.07933e-15 -1.23925 0 
845 2 0.301687 0.170056 0.5 -1.30583e-07 -1.23925 0 
936 2 0.196259 0.829997 0.5 -1.30577e-07 1.23924 0 
937 2 0.231402 0.829997 0.5 1.30578e-06 1.23924 0 
938 2 0.266545 0.829997 0.5 -2.37949e-14 1.23924 0 
939 2 0.301687 0.829997 0.5 -1.30577e-07 1.23924 0 
412 1 0.196259 0.838916 0.5 0 0 0 
432 1 0.178687 0.844471 0.5 0 0 0 
433 1 0.21383 0.844471 0.5 0 0 0 
453 1 0.178687 0.855582 0.5 0 0 0 
454 1 0.21383 0.855582 0.5 0 0 0 
413 1 0.231402 0.838916 0.5 0 0 0 
414 1 0.266545 0.838916 0.5 0 0 0 
434 1 0.248973 0.844471 0.5 0 0 0 
455 1 0.248973 0.855582 0.5 0 0 0 
415 1 0.301687 0.838916 0.5 0 0 0 
435 1 0.284116 0.844471 0.5 0 0 0 
436 1 0.319259 0.844471 0.5 0 0 0 
456 1 0.284116 0.855582 0.5 0 0 0 
457 1 0.319259 0.855582 0.5 0 0 0 
474 1 0.196259 0.861138 0.5 0 0 0 
494 1 0.196259 0.872249 0.5 0 0 0 
514 1 0.178687 0.877805 0.5 0 0 0 
515 1 0.21383 0.877805 0.5 0 0 0 
475 1 0.231402 0.861138 0.5 0 0 0 
476 1 0.266545 0.861138 0.5 0 0 0 
495 1 0.231402 0.872249 0.5 0 0 0 
496 1 0.266545 0.872249 0.5 0 0 0 
516 1 0.248973 0.877805 0.5 0 0 0 
477 1 0.301687 0.861138 0.5 0 0 0 
497 1 0.301687 0.872249 0.5 0 0 0 
517 1 0.284116 0.877805 0.5 0 0 0 
518 1 0.319259 0.877805 0.5 0 0 0 
535 1 0.178687 0.888916 0.5 0 0 0 
536 1 0.21383 0.888916 0.5 0 0 0 
556 1 0.196259 0.894471 0.5 0 0 0 
576 1 0.196259 0.905582 0.5 0 0 0 
596 1 0.178687 0.911138 0.5 0 0 0 
597 1 0.21383 0.911138 0.5 0 0 0 
537 1 0.248973 0.888916 0.5 0 0 0 
557 1 0.231402 0.894471 0.5 0 0 0 
558 1 0.266545 0.894471 0.5 0 0 0 
577 1 0.231402 0.905582 0.5 0 0 0 
578 1 0.266545 0.905582 0.5 0 0 0 
598 1 0.248973 0.911138 0.5 0 0 0 
538 1 0.284116 0.888916 0.5 0 0 0 
539 1 0.319259 0.888916 0.5 0 0 0 
559 1 0.301687 0.894471 0.5 0 0 0 
579 1 0.301687 0.905582 0.5 0 0 0 
599 1 0.284116 0.911138 0.5 0 0 0 
600 1 0.319259 0.911138 0.5 0 0 0 
617 1 0.178687 0.922249 0.5 0 0 0 
618 1 0.21383 0.922249 0.5 0 0 0 
638 1 0.196259 0.927805 0.5 0 0 0 
658 1 0.196259 0.938916 0.5 0 0 0 
619 1 0.248973 0.922249 0.5 0 0 0 
639 1 0.231402 0.927805 0.5 0 0 0 
640 1 0.266545 0.927805 0.5 0 0 0 
659 1 0.231402 0.938916 0.5 0 0 0 
660 1 0.266545 0.938916 0.5 0 0 0 
620 1 0.284116 0.922249 0.5 0 0 0 
621 1 0.319259 0.922249 0.5 0 0 0 
641 1 0.301687 0.927805 0.5 0 0 0 
661 1 0.301687 0.938916 0.5 0 0 0 
678 1 0.178687 0.944471 0.5 0 0 0 
679 1 0.21383 0.944471 0.5 0 0 0 
699 1 0.178687 0.955582 0.5 0 0 0 
700 1 0.21383 0.955582 0.5 0 0 0 
720 1 0.196259 0.961138 0.5 0 0 0 
680 1 0.248973 0.944471 0.5 0 0 0 
701 1 0.248973 0.955582 0.5 0 0 0 
721 1 0.231402 0.961138 0.5 0 0 0 
722 1 0.266545 0.961138 0.5 0 0 0 
681 1 0.284116 0.944471 0.5 0 0 0 
682 1 0.319259 0.944471 0.5 0 0 0 
702 1 0.284116 0.955582 0.5 0 0 0 
703 1 0.319259 0.955582 0.5 0 0 0 
723 1 0.301687 0.961138 0.5 0 0 0 
740 1 0.196259 0.972249 0.5 0 0 0 
760 1 0.178687 0.977805 0.5 0 0 0 
761 1 0.21383 0.977805 0.5 0 0 0 
781 1 0.178687 0.988916 0.5 0 0 0 
782 1 0.21383 0.988916 0.5 0 0 0 
802 1 0.196259 0.994471 0.5 0 0 0 
741 1 0.231402 0.972249 0.5 0 0 0 
742 1 0.266545 0.972249 0.5 0 0 0 
762 1 0.248973 0.977805 0.5 0 0 0 
783 1 0.248973 0.988916 0.5 0 0 0 
803 1 0.231402 0.994471 0.5 0 0 0 
804 1 0.266545 0.994471 0.5 0 0 0 
743 1 0.301687 0.972249 0.5 0 0 0 
763 1 0.284116 0.977805 0.5 0 0 0 
764 1 0.319259 0.977805 0.5 0 0 0 
784 1 0.284116 0.988916 0.5 0 0 0 
785 1 0.319259 0.988916 0.5 0 0 0 
805 1 0.301687 0.994471 0.5 0 0 0 
6 1 0.33683 0.00558241 0.5 0 0 0 
7 1 0.371973 0.00558241 0.5 0 0 0 
27 1 0.354402 0.011138 0.5 0 0 0 
48 1 0.354402 0.0222491 0.5 0 0 0 
8 1 0.407116 0.00558241 0.5 0 0 0 
9 1 0.442259 0.00558241 0.5 0 0 0 
28 1 0.389544 0.011138 0.5 0 0 0 
29 1 0.424687 0.011138 0.5 0 0 0 
49 1 0.389544 0.0222491 0.5 0 0 0 
50 1 0.424687 0.0222491 0.5 0 0 0 
10 1 0.477402 0.00558241 0.5 0 0 0 
30 1 0.45983 0.011138 0.5 0 0 0 
31 1 0.494973 0.011138 0.5 0 0 0 
51 1 0.45983 0.0222491 0.5 0 0 0 
52 1 0.494973 0.0222491 0.5 0 0 0 
68 1 0.33683 0.0278046 0.5 0 0 0 
69 1 0.371973 0.0278046 0.5 0 0 0 
88 1 0.33683 0.0389157 0.5 0 0 0 
89 1 0.371973 0.0389157 0.5 0 0 0 
109 1 0.354402 0.0444713 0.5 0 0 0 
70 1 0.407116 0.0278046 0.5 0 0 0 
71 1 0.442259 0.0278046 0.5 0 0 0 
90 1 0.407116 0.0389157 0.5 0 0 0 
91 1 0.442259 0.0389157 0.5 0 0 0 
110 1 0.389544 0.0444713 0.5 0 0 0 
111 1 0.424687 0.0444713 0.5 0 0 0 
72 1 0.477402 0.0278046 0.5 0 0 0 
92 1 0.477402 0.0389157 0.5 0 0 0 
112 1 0.45983 0.0444713 0.5 0 0 0 
113 1 0.494973 0.0444713 0.5 0 0 0 
130 1 0.354402 0.0555824 0.5 0 0 0 
150 1 0.33683 0.061138 0.5 0 0 0 
151 1 0.371973 0.061138 0.5 0 0 0 
170 1 0.33683 0.0722491 0.5 0 0 0 
171 1 0.371973 0.0722491 0.5 0 0 0 
191 1 0.354402 0.0778046 0.5 0 0 0 
131 1 0.389544 0.0555824 0.5 0 0 0 
132 1 0.424687 0.0555824 0.5 0 0 0 
152 1 0.407116 0.061138 0.5 0 0 0 
153 1 0.442259 0.061138 0.5 0 0 0 
172 1 0.407116 0.0722491 0.5 0 0 0 
173 1 0.442259 0.0722491 0.5 0 0 0 
192 1 0.389544 0.0778046 0.5 0 0 0 
193 1 0.424687 0.0778046 0.5 0 0 0 
133 1 0.45983 0.0555824 0.5 0 0 0 
134 1 0.494973 0.0555824 0.5 0 0 0 
154 1 0.477402 0.061138 0.5 0 0 0 
174 1 0.477402 0.0722491 0.5 0 0 0 
194 1 0.45983 0.0778046 0.5 0 0 0 
195 1 0.494973 0.0778046 0.5 0 0 0 
212 1 0.354402 0.0889157 0.5 0 0 0 
232 1 0.33683 0.0944713 0.5 0 0 0 
233 1 0.371973 0.0944713 0.5 0 0 0 
252 1 0.33683 0.105582 0.5 0 0 0 
253 1 0.371973 0.105582 0.5 0 0 0 
213 1 0.389544 0.0889157 0.5 0 0 0 
214 1 0.424687 0.0889157 0.5 0 0 0 
234 1 0.407116 0.0944713 0.5 0 0 0 
235 1 0.442259 0.0944713 0.5 0 0 0 
254 1 0.407116 0.105582 0.5 0 0 0 
255 1 0.442259 0.105582 0.5 0 0 0 
215 1 0.45983 0.0889157 0.5 0 0 0 
216 1 0.494973 0.0889157 0.5 0 0 0 
236 1 0.477402 0.0944713 0.5 0 0 0 
256 1 0.477402 0.105582 0.5 0 0 0 
273 1 0.354402 0.111138 0.5 0 0 0 
294 1 0.354402 0.122249 0.5 0 0 0 
314 1 0.33683 0.127805 0.5 0 0 0 
315 1 0.371973 0.127805 0.5 0 0 0 
274 1 0.389544 0.111138 0.5 0 0 0 
275 1 0.424687 0.111138 0.5 0 0 0 
295 1 0.389544 0.122249 0.5 0 0 0 
296 1 0.424687 0.122249 0.5 0 0 0 
316 1 0.407116 0.127805 0.5 0 0 0 
317 1 0.442259 0.127805 0.5 0 0 0 
276 1 0.45983 0.111138 0.5 0 0 0 
277 1 0.494973 0.111138 0.5 0 0 0 
297 1 0.45983 0.122249 0.5 0 0 0 
298 1 0.494973 0.122249 0.5 0 0 0 
318 1 0.477402 0.127805 0.5 0 0 0 
334 1 0.33683 0.138916 0.5 0 0 0 
335 1 0.371973 0.138916 0.5 0 0 0 
355 1 0.354402 0.144471 0.5 0 0 0 
376 1 0.354402 0.155582 0.5 0 0 0 
396 1 0.33683 0.161138 0.5 0 0 0 
397 1 0.371973 0.161138 0.5 0 0 0 
336 1 0.407116 0.138916 0.5 0 0 0 
337 1 0.442259 0.138916 0.5 0 0 0 
356 1 0.389544 0.144471 0.5 0 0 0 
357 1 0.424687 0.144471 0.5 0 0 0 
377 1 0.389544 0.155582 0.5 0 0 0 
378 1 0.424687 0.155582 0.5 0 0 0 
398 1 0.407116 0.161138 0.5 0 0 0 
399 1 0.442259 0.161138 0.5 0 0 0 
338 1 0.477402 0.138916 0.5 0 0 0 
358 1 0.45983 0.144471 0.5 0 0 0 
359 1 0.494973 0.144471 0.5 0 0 0 
379 1 0.45983 0.155582 0.5 0 0 0 
380 1 0.494973 0.155582 0.5 0 0 0 
400 1 0.477402 0.161138 0.5 0 0 0 
846 2 0.33683 0.170056 0.5 -1.30583e-07 -1.23925 0 
847 2 0.371973 0.170056 0.5 1.30583e-07 -1.23925 0 
855 2 0.393012 0.176708 0.5 1.07322 -0.619621 0 
857 2 0.393012 0.190012 0.5 1.07322 0.619621 0 
969 3 0.407116 0.172249 0.5 0 0 0 
970 3 0.442259 0.172249 0.5 0 0 0 
975 3 0.424687 0.177805 0.5 0 0 0 
980 3 0.424687 0.188916 0.5 0 0 0 
971 3 0.477402 0.172249 0.5 0 0 0 
976 3 0.45983 0.177805 0.5 0 0 0 
977 3 0.494973 0.177805 0.5 0 0 0 
981 3 0.45983 0.188916 0.5 0 0 0 
982 3 0.494973 0.188916 0.5 0 0 0 
859 2 0.393012 0.210042 0.5 1.07322 -0.619621 0 
985 3 0.407116 0.194471 0.5 0 0 0 
986 3 0.442259 0.194471 0.5 0 0 0 
991 3 0.407116 0.205582 0.5 0 0 0 
992 3 0.442259 0.205582 0.5 0 0 0 
997 3 0.424687 0.211138 0.5 0 0 0 
987 3 0.477402 0.194471 0.5 0 0 0 
993 3 0.477402 0.205582 0.5 0 0 0 
998 3 0.45983 0.211138 0.5 0 0 0 
999 3 0.494973 0.211138 0.5 0 0 0 
861 2 0.393012 0.223345 0.5 1.07322 0.619621 0 
863 2 0.393012 0.243375 0.5 1.07322 -0.619621 0 
1002 3 0.424687 0.222249 0.5 0 0 0 
1007 3 0.407116 0.227805 0.5 0 0 0 
1008 3 0.442259 0.227805 0.5 0 0 0 
1013 3 0.407116 0.238916 0.5 0 0 0 
1014 3 0.442259 0.238916 0.5 0 0 0 
1019 3 0.424687 0.244471 0.5 0 0 0 
1003 3 0.45983 0.222249 0.5 0 0 0 
1004 3 0.494973 0.222249 0.5 0 0 0 
1009 3 0.477402 0.227805 0.5 0 0 0 
1015 3 0.477402 0.238916 0.5 0 0 0 
1020 3 0.45983 0.244471 0.5 0 0 0 
1021 3 0.494973 0.244471 0.5 0 0 0 
865 2 0.393012 0.256679 0.5 1.07322 0.619621 0 
867 2 0.393012 0.276708 0.5 1.07322 -0.619621 0 
1024 3 0.424687 0.255582 0.5 0 0 0 
1029 3 0.407116 0.261138 0.5 0 0 0 
1030 3 0.442259 0.261138 0.5 0 0 0 
1035 3 0.407116 0.272249 0.5 0 0 0 
1036 3 0.442259 0.272249 0.5 0 0 0 
1025 3 0.45983 0.255582 0.5 0 0 0 
1026 3 0.494973 0.255582 0.5 0 0 0 
1031 3 0.477402 0.261138 0.5 0 0 0 
1037 3 0.477402 0.272249 0.5 0 0 0 
869 2 0.393012 0.290012 0.5 1.07322 0.619621 0 
1041 3 0.424687 0.277805 0.5 0 0 0 
1046 3 0.424687 0.288916 0.5 0 0 0 
1051 3 0.407116 0.294471 0.5 0 0 0 
1052 3 0.442259 0.294471 0.5 0 0 0 
1042 3 0.45983 0.277805 0.5 0 0 0 
1043 3 0.494973 0.277805 0.5 0 0 0 
1047 3 0.45983 0.288916 0.5 0 0 0 
1048 3 0.494973 0.288916 0.5 0 0 0 
1053 3 0.477402 0.294471 0.5 0 0 0 
871 2 0.393012 0.310042 0.5 1.07322 -0.619621 0 
873 2 0.393012 0.323345 0.5 1.07322 0.619621 0 
1057 3 0.407116 0.305582 0.5 0 0 0 
1058 3 0.442259 0.305582 0.5 0 0 0 
1063 3 0.424687 0.311138 0.5 0 0 0 
1068 3 0.424687 0.322249 0.5 0 0 0 
1073 3 0.407116 0.327805 0.5 0 0 0 
1074 3 0.442259 0.327805 0.5 0 0 0 
1059 3 0.477402 0.305582 0.5 0 0 0 
1064 3 0.45983 0.311138 0.5 0 0 0 
1065 3 0.494973 0.311138 0.5 0 0 0 
1069 3 0.45983 0.322249 0.5 0 0 0 
1070 3 0.494973 0.322249 0.5 0 0 0 
1075 3 0.477402 0.327805 0.5 0 0 0 
875 2 0.393012 0.343375 0.5 1.07322 -0.619621 0 
877 2 0.393012 0.356679 0.5 1.07325 0.619654 0 
1079 3 0.407116 0.338916 0.5 0 0 0 
1080 3 0.442259 0.338916 0.5 0 0 0 
1085 3 0.424687 0.344471 0.5 0 0 0 
1090 3 0.424687 0.355582 0.5 0 0 0 
1081 3 0.477402 0.338916 0.5 0 0 0 
1086 3 0.45983 0.344471 0.5 0 0 0 
1087 3 0.494973 0.344471 0.5 0 0 0 
1091 3 0.45983 0.355582 0.5 0 0 0 
1092 3 0.494973 0.355582 0.5 0 0 0 
879 2 0.393012 0.376708 0.5 1.07322 -0.619621 0 
1095 3 0.407116 0.361138 0.5 0 0 0 
1096 3 0.442259 0.361138 0.5 0 0 0 
1101 3 0.407116 0.372249 0.5 0 0 0 
1102 3 0.442259 0.372249 0.5 0 0 0 
1107 3 0.424687 0.377805 0.5 0 0 0 
1097 3 0.477402 0.361138 0.5 0 0 0 
1103 3 0.477402 0.372249 0.5 0 0 0 
1108 3 0.45983 0.377805 0.5 0 0 0 
1109 3 0.494973 0.377805 0.5 0 0 0 
881 2 0.393012 0.390012 0.5 1.07322 0.619621 0 
883 2 0.393012 0.410042 0.5 1.07322 -0.619621 0 
1112 3 0.424687 0.388916 0.5 0 0 0 
1117 3 0.407116 0.394471 0.5 0 0 0 
1118 3 0.442259 0.394471 0.5 0 0 0 
1123 3 0.407116 0.405582 0.5 0 0 0 
1124 3 0.442259 0.405582 0.5 0 0 0 
1129 3 0.424687 0.411138 0.5 0 0 0 
1113 3 0.45983 0.388916 0.5 0 0 0 
1114 3 0.494973 0.388916 0.5 0 0 0 
1119 3 0.477402 0.394471 0.5 0 0 0 
1125 3 0.477402 0.405582 0.5 0 0 0 
1130 3 0.45983 0.411138 0.5 0 0 0 
1131 3 0.494973 0.411138 0.5 0 0 0 
885 2 0.393012 0.423345 0.5 1.07321 0.619629 0 
887 2 0.393012 0.443375 0.5 1.07321 -0.619629 0 
1134 3 0.424687 0.422249 0.5 0 0 0 
1139 3 0.407116 0.427805 0.5 0 0 0 
1140 3 0.442259 0.427805 0.5 0 0 0 
1145 3 0.407116 0.438916 0.5 0 0 0 
1146 3 0.442259 0.438916 0.5 0 0 0 
1135 3 0.45983 0.422249 0.5 0 0 0 
1136 3 0.494973 0.422249 0.5 0 0 0 
1141 3 0.477402 0.427805 0.5 0 0 0 
1147 3 0.477402 0.438916 0.5 0 0 0 
889 2 0.393012 0.456679 0.5 1.07322 0.619621 0 
1151 3 0.424687 0.444471 0.5 0 0 0 
1156 3 0.424687 0.455582 0.5 0 0 0 
1161 3 0.407116 0.461138 0.5 0 0 0 
1162 3 0.442259 0.461138 0.5 0 0 0 
1152 3 0.45983 0.444471 0.5 0 0 0 
1153 3 0.494973 0.444471 0.5 0 0 0 
1157 3 0.45983 0.455582 0.5 0 0 0 
1158 3 0.494973 0.455582 0.5 0 0 0 
1163 3 0.477402 0.461138 0.5 0 0 0 
891 2 0.393012 0.476708 0.5 1.07322 -0.619621 0 
893 2 0.393012 0.490012 0.5 1.07321 0.619629 0 
1167 3 0.407116 0.472249 0.5 0 0 0 
1168 3 0.442259 0.472249 0.5 0 0 0 
1173 3 0.424687 0.477805 0.5 0 0 0 
1178 3 0.424687 0.488916 0.5 0 0 0 
1183 3 0.407116 0.494471 0.5 0 0 0 
1184 3 0.442259 0.494471 0.5 0 0 0 
1169 3 0.477402 0.472249 0.5 0 0 0 
1174 3 0.45983 0.477805 0.5 0 0 0 
1175 3 0.494973 0.477805 0.5 0 0 0 
1179 3 0.45983 0.488916 0.5 0 0 0 
1180 3 0.494973 0.488916 0.5 0 0 0 
1185 3 0.477402 0.494471 0.5 0 0 0 
895 2 0.393012 0.510042 0.5 1.07321 -0.619629 0 
897 2 0.393012 0.523345 0.5 1.07322 0.619621 0 
1189 3 0.407116 0.505582 0.5 0 0 0 
1190 3 0.442259 0.505582 0.5 0 0 0 
1195 3 0.424687 0.511138 0.5 0 0 0 
1200 3 0.424687 0.522249 0.5 0 0 0 
1191 3 0.477402 0.505582 0.5 0 0 0 
1196 3 0.45983 0.511138 0.5 0 0 0 
1197 3 0.494973 0.511138 0.5 0 0 0 
1201 3 0.45983 0.522249 0.5 0 0 0 
1202 3 0.494973 0.522249 0.5 0 0 0 
899 2 0.393012 0.543375 0.5 1.07322 -0.619622 0 
1205 3 0.407116 0.527805 0.5 0 0 0 
1206 3 0.442259 0.527805 0.5 0 0 0 
1211 3 0.407116 0.538916 0.5 0 0 0 
1212 3 0.442259 0.538916 0.5 0 0 0 
1217 3 0.424687 0.544471 0.5 0 0 0 
1207 3 0.477402 0.527805 0.5 0 0 0 
1213 3 0.477402 0.538916 0.5 0 0 0 
1218 3 0.45983 0.544471 0.5 0 0 0 
1219 3 0.494973 0.544471 0.5 0 0 0 
901 2 0.393012 0.556679 0.5 1.07322 0.619621 0 
903 2 0.393012 0.576708 0.5 1.07322 -0.619621 0 
1222 3 0.424687 0.555582 0.5 0 0 0 
1227 3 0.407116 0.561138 0.5 0 0 0 
1228 3 0.442259 0.561138 0.5 0 0 0 
1233 3 0.407116 0.572249 0.5 0 0 0 
1234 3 0.442259 0.572249 0.5 0 0 0 
1239 3 0.424687 0.577805 0.5 0 0 0 
1223 3 0.45983 0.555582 0.5 0 0 0 
1224 3 0.494973 0.555582 0.5 0 0 0 
1229 3 0.477402 0.561138 0.5 0 0 0 
1235 3 0.477402 0.572249 0.5 0 0 0 
1240 3 0.45983 0.577805 0.5 0 0 0 
1241 3 0.494973 0.577805 0.5 0 0 0 
905 2 0.393012 0.590012 0.5 1.07322 0.619621 0 
907 2 0.393012 0.610042 0.5 1.07322 -0.619621 0 
1244 3 0.424687 0.588916 0.5 0 0 0 
1249 3 0.407116 0.594471 0.5 0 0 0 
1250 3 0.442259 0.594471 0.5 0 0 0 
1255 3 0.407116 0.605582 0.5 0 0 0 
1256 3 0.442259 0.605582 0.5 0 0 0 
1245 3 0.45983 0.588916 0.5 0 0 0 
1246 3 0.494973 0.588916 0.5 0 0 0 
1251 3 0.477402 0.594471 0.5 0 0 0 
1257 3 0.477402 0.605582 0.5 0 0 0 
909 2 0.393012 0.623345 0.5 1.07321 0.619637 0 
1261 3 0.424687 0.611138 0.5 0 0 0 
1266 3 0.424687 0.622249 0.5 0 0 0 
1271 3 0.407116 0.627805 0.5 0 0 0 
1272 3 0.442259 0.627805 0.5 0 0 0 
1262 3 0.45983 0.611138 0.5 0 0 0 
1263 3 0.494973 0.611138 0.5 0 0 0 
1267 3 0.45983 0.622249 0.5 0 0 0 
1268 3 0.494973 0.622249 0.5 0 0 0 
1273 3 0.477402 0.627805 0.5 0 0 0 
911 2 0.393012 0.643375 0.5 1.07321 -0.619637 0 
913 2 0.393012 0.656679 0.5 1.07322 0.619621 0 
1277 3 0.407116 0.638916 0.5 0 0 0 
1278 3 0.442259 0.638916 0.5 0 0 0 
1283 3 0.424687 0.644471 0.5 0 0 0 
1288 3 0.424687 0.655582 0.5 0 0 0 
1293 3 0.407116 0.661138 0.5 0 0 0 
1294 3 0.442259 0.661138 0.5 0 0 0 
1279 3 0.477402 0.638916 0.5 0 0 0 
1284 3 0.45983 0.644471 0.5 0 0 0 
1285 3 0.494973 0.644471 0.5 0 0 0 
1289 3 0.45983 0.655582 0.5 0 0 0 
1290 3 0.494973 0.655582 0.5 0 0 0 
1295 3 0.477402 0.661138 0.5 0 0 0 
915 2 0.393012 0.676708 0.5 1.07322 -0.619622 0 
917 2 0.393012 0.690012 0.5 1.07322 0.619621 0 
1299 3 0.407116 0.672249 0.5 0 0 0 
1300 3 0.442259 0.672249 0.5 0 0 0 
1305 3 0.424687 0.677805 0.5 0 0 0 
1310 3 0.424687 0.688916 0.5 0 0 0 
1301 3 0.477402 0.672249 0.5 0 0 0 
1306 3 0.45983 0.677805 0.5 0 0 0 
1307 3 0.494973 0.677805 0.5 0 0 0 
1311 3 0.45983 0.688916 0.5 0 0 0 
1312 3 0.494973 0.688916 0.5 0 0 0 
919 2 0.393012 0.710042 0.5 1.07322 -0.61962 0 
1315 3 0.407116 0.694471 0.5 0 0 0 
1316 3 0.442259 0.694471 0.5 0 0 0 
1321 3 0.407116 0.705582 0.5 0 0 0 
1322 3 0.442259 0.705582 0.5 0 0 0 
1327 3 0.424687 0.711138 0.5 0 0 0 
1317 3 0.477402 0.694471 0.5 0 0 0 
1323 3 0.477402 0.705582 0.5 0 0 0 
1328 3 0.45983 0.711138 0.5 0 0 0 
1329 3 0.494973 0.711138 0.5 0 0 0 
921 2 0.393012 0.723345 0.5 1.07322 0.619621 0 
923 2 0.393012 0.743375 0.5 1.07322 -0.619621 0 
1332 3 0.424687 0.722249 0.5 0 0 0 
1337 3 0.407116 0.727805 0.5 0 0 0 
1338 3 0.442259 0.727805 0.5 0 0 0 
1343 3 0.407116 0.738916 0.5 0 0 0 
1344 3 0.442259 0.738916 0.5 0 0 0 
1349 3 0.424687 0.744471 0.5 0 0 0 
1333 3 0.45983 0.722249 0.5 0 0 0 
1334 3 0.494973 0.722249 0.5 0 0 0 
1339 3 0.477402 0.727805 0.5 0 0 0 
1345 3 0.477402 0.738916 0.5 0 0 0 
1350 3 0.45983 0.744471 0.5 0 0 0 
1351 3 0.494973 0.744471 0.5 0 0 0 
925 2 0.393012 0.756679 0.5 1.07322 0.619622 0 
927 2 0.393012 0.776708 0.5 1.07322 -0.619621 0 
1354 3 0.424687 0.755582 0.5 0 0 0 
1359 3 0.407116 0.761138 0.5 0 0 0 
1360 3 0.442259 0.761138 0.5 0 0 0 
1365 3 0.407116 0.772249 0.5 0 0 0 
1366 3 0.442259 0.772249 0.5 0 0 0 
1355 3 0.45983 0.755582 0.5 0 0 0 
1356 3 0.494973 0.755582 0.5 0 0 0 
1361 3 0.477402 0.761138 0.5 0 0 0 
1367 3 0.477402 0.772249 0.5 0 0 0 
929 2 0.393012 0.790012 0.5 1.07322 0.619621 0 
1371 3 0.424687 0.777805 0.5 0 0 0 
1376 3 0.424687 0.788916 0.5 0 0 0 
1381 3 0.407116 0.794471 0.5 0 0 0 
1382 3 0.442259 0.794471 0.5 0 0 0 
1372 3 0.45983 0.777805 0.5 0 0 0 
1373 3 0.494973 0.777805 0.5 0 0 0 
1377 3 0.45983 0.788916 0.5 0 0 0 
1378 3 0.494973 0.788916 0.5 0 0 0 
1383 3 0.477402 0.794471 0.5 0 0 0 
940 2 0.33683 0.829997 0.5 -1.30577e-07 1.23924 0 
941 2 0.371973 0.829997 0.5 1.30577e-07 1.23924 0 
931 2 0.393012 0.810042 0.5 1.07322 -0.619622 0 
933 2 0.393012 0.823345 0.5 1.07322 0.619621 0 
1387 3 0.407116 0.805582 0.5 0 0 0 
1388 3 0.442259 0.805582 0.5 0 0 0 
1393 3 0.424687 0.811138 0.5 0 0 0 
1398 3 0.424687 0.822249 0.5 0 0 0 
1403 3 0.407116 0.827805 0.5 0 0 0 
1404 3 0.442259 0.827805 0.5 0 0 0 
1389 3 0.477402 0.805582 0.5 0 0 0 
1394 3 0.45983 0.811138 0.5 0 0 0 
1395 3 0.494973 0.811138 0.5 0 0 0 
1399 3 0.45983 0.822249 0.5 0 0 0 
1400 3 0.494973 0.822249 0.5 0 0 0 
1405 3 0.477402 0.827805 0.5 0 0 0 
416 1 0.33683 0.838916 0.5 0 0 0 
417 1 0.371973 0.838916 0.5 0 0 0 
437 1 0.354402 0.844471 0.5 0 0 0 
458 1 0.354402 0.855582 0.5 0 0 0 
418 1 0.407116 0.838916 0.5 0 0 0 
419 1 0.442259 0.838916 0.5 0 0 0 
438 1 0.389544 0.844471 0.5 0 0 0 
439 1 0.424687 0.844471 0.5 0 0 0 
459 1 0.389544 0.855582 0.5 0 0 0 
460 1 0.424687 0.855582 0.5 0 0 0 
420 1 0.477402 0.838916 0.5 0 0 0 
440 1 0.45983 0.844471 0.5 0 0 0 
441 1 0.494973 0.844471 0.5 0 0 0 
461 1 0.45983 0.855582 0.5 0 0 0 
462 1 0.494973 0.855582 0.5 0 0 0 
478 1 0.33683 0.861138 0.5 0 0 0 
479 1 0.371973 0.861138 0.5 0 0 0 
498 1 0.33683 0.872249 0.5 0 0 0 
499 1 0.371973 0.872249 0.5 0 0 0 
519 1 0.354402 0.877805 0.5 0 0 0 
480 1 0.407116 0.861138 0.5 0 0 0 
481 1 0.442259 0.861138 0.5 0 0 0 
500 1 0.407116 0.872249 0.5 0 0 0 
501 1 0.442259 0.872249 0.5 0 0 0 
520 1 0.389544 0.877805 0.5 0 0 0 
521 1 0.424687 0.877805 0.5 0 0 0 
482 1 0.477402 0.861138 0.5 0 0 0 
502 1 0.477402 0.872249 0.5 0 0 0 
522 1 0.45983 0.877805 0.5 0 0 0 
523 1 0.494973 0.877805 0.5 0 0 0 
540 1 0.354402 0.888916 0.5 0 0 0 
560 1 0.33683 0.894471 0.5 0 0 0 
561 1 0.371973 0.894471 0.5 0 0 0 
580 1 0.33683 0.905582 0.5 0 0 0 
581 1 0.371973 0.905582 0.5 0 0 0 
601 1 0.354402 0.911138 0.5 0 0 0 
541 1 0.389544 0.888916 0.5 0 0 0 
542 1 0.424687 0.888916 0.5 0 0 0 
562 1 0.407116 0.894471 0.5 0 0 0 
563 1 0.442259 0.894471 0.5 0 0 0 
582 1 0.407116 0.905582 0.5 0 0 0 
583 1 0.442259 0.905582 0.5 0 0 0 
602 1 0.389544 0.911138 0.5 0 0 0 
603 1 0.424687 0.911138 0.5 0 0 0 
543 1 0.45983 0.888916 0.5 0 0 0 
544 1 0.494973 0.888916 0.5 0 0 0 
564 1 0.477402 0.894471 0.5 0 0 0 
584 1 0.477402 0.905582 0.5 0 0 0 
604 1 0.45983 0.911138 0.5 0 0 0 
605 1 0.494973 0.911138 0.5 0 0 0 
622 1 0.354402 0.922249 0.5 0 0 0 
642 1 0.33683 0.927805 0.5 0 0 0 
643 1 0.371973 0.927805 0.5 0 0 0 
662 1 0.33683 0.938916 0.5 0 0 0 
663 1 0.371973 0.938916 0.5 0 0 0 
623 1 0.389544 0.922249 0.5 0 0 0 
624 1 0.424687 0.922249 0.5 0 0 0 
644 1 0.407116 0.927805 0.5 0 0 0 
645 1 0.442259 0.927805 0.5 0 0 0 
664 1 0.407116 0.938916 0.5 0 0 0 
665 1 0.442259 0.938916 0.5 0 0 0 
625 1 0.45983 0.922249 0.5 0 0 0 
626 1 0.494973 0.922249 0.5 0 0 0 
646 1 0.477402 0.927805 0.5 0 0 0 
666 1 0.477402 0.938916 0.5 0 0 0 
683 1 0.354402 0.944471 0.5 0 0 0 
704 1 0.354402 0.955582 0.5 0 0 0 
724 1 0.33683 0.961138 0.5 0 0 0 
725 1 0.371973 0.961138 0.5 0 0 0 
684 1 0.389544 0.944471 0.5 0 0 0 
685 1 0.424687 0.944471 0.5 0 0 0 
705 1 0.389544 0.955582 0.5 0 0 0 
706 1 0.424687 0.955582 0.5 0 0 0 
726 1 0.407116 0.961138 0.5 0 0 0 
727 1 0.442259 0.961138 0.5 0 0 0 
686 1 0.45983 0.944471 0.5 0 0 0 
687 1 0.494973 0.944471 0.5 0 0 0 
707 1 0.45983 0.955582 0.5 0 0 0 
708 1 0.494973 0.955582 0.5 0 0 0 
728 1 0.477402 0.961138 0.5 0 0 0 
744 1 0.33683 0.972249 0.5 0 0 0 
745 1 0.371973 0.972249 0.5 0 0 0 
765 1 0.354402 0.977805 0.5 0 0 0 
786 1 0.354402 0.988916 0.5 0 0 0 
806 1 0.33683 0.994471 0.5 0 0 0 
807 1 0.371973 0.994471 0.5 0 0 0 
746 1 0.407116 0.972249 0.5 0 0 0 
747 1 0.442259 0.972249 0.5 0 0 0 
766 1 0.389544 0.977805 0.5 0 0 0 
767 1 0.424687 0.977805 0.5 0 0 0 
787 1 0.389544 0.988916 0.5 0 0 0 
788 1 0.424687 0.988916 0.5 0 0 0 
808 1 0.407116 0.994471 0.5 0 0 0 
809 1 0.442259 0.994471 0.5 0 0 0 
748 1 0.477402 0.972249 0.5 0 0 0 
768 1 0.45983 0.977805 0.5 0 0 0 
769 1 0.494973 0.977805 0.5 0 0 0 
789 1 0.45983 0.988916 0.5 0 0 0 
790 1 0.494973 0.988916 0.5 0 0 0 
810 1 0.477402 0.994471 0.5 0 0 0 
11 1 0.512544 0.00558241 0.5 0 0 0 
12 1 0.547687 0.00558241 0.5 0 0 0 
32 1 0.530116 0.011138 0.5 0 0 0 
53 1 0.530116 0.0222491 0.5 0 0 0 
13 1 0.58283 0.00558241 0.5 0 0 0 
33 1 0.565259 0.011138 0.5 0 0 0 
34 1 0.600402 0.011138 0.5 0 0 0 
54 1 0.565259 0.0222491 0.5 0 0 0 
55 1 0.600402 0.0222491 0.5 0 0 0 
14 1 0.617973 0.00558241 0.5 0 0 0 
15 1 0.653116 0.00558241 0.5 0 0 0 
35 1 0.635544 0.011138 0.5 0 0 0 
56 1 0.635544 0.0222491 0.5 0 0 0 
73 1 0.512544 0.0278046 0.5 0 0 0 
74 1 0.547687 0.0278046 0.5 0 0 0 
93 1 0.512544 0.0389157 0.5 0 0 0 
94 1 0.547687 0.0389157 0.5 0 0 0 
114 1 0.530116 0.0444713 0.5 0 0 0 
75 1 0.58283 0.0278046 0.5 0 0 0 
95 1 0.58283 0.0389157 0.5 0 0 0 
115 1 0.565259 0.0444713 0.5 0 0 0 
116 1 0.600402 0.0444713 0.5 0 0 0 
76 1 0.617973 0.0278046 0.5 0 0 0 
77 1 0.653116 0.0278046 0.5 0 0 0 
96 1 0.617973 0.0389157 0.5 0 0 0 
97 1 0.653116 0.0389157 0.5 0 0 0 
117 1 0.635544 0.0444713 0.5 0 0 0 
135 1 0.530116 0.0555824 0.5 0 0 0 
155 1 0.512544 0.061138 0.5 0 0 0 
156 1 0.547687 0.061138 0.5 0 0 0 
175 1 0.512544 0.0722491 0.5 0 0 0 
176 1 0.547687 0.0722491 0.5 0 0 0 
196 1 0.530116 0.0778046 0.5 0 0 0 
136 1 0.565259 0.0555824 0.5 0 0 0 
137 1 0.600402 0.0555824 0.5 0 0 0 
157 1 0.58283 0.061138 0.5 0 0 0 
177 1 0.58283 0.0722491 0.5 0 0 0 
197 1 0.565259 0.0778046 0.5 0 0 0 
198 1 0.600402 0.0778046 0.5 0 0 0 
138 1 0.635544 0.0555824 0.5 0 0 0 
158 1 0.617973 0.061138 0.5 0 0 0 
159 1 0.653116 0.061138 0.5 0 0 0 
178 1 0.617973 0.0722491 0.5 0 0 0 
179 1 0.653116 0.0722491 0.5 0 0 0 
199 1 0.635544 0.0778046 0.5 0 0 0 
217 1 0.530116 0.0889157 0.5 0 0 0 
237 1 0.512544 0.0944713 0.5 0 0 0 
238 1 0.547687 0.0944713 0.5 0 0 0 
257 1 0.512544 0.105582 0.5 0 0 0 
258 1 0.547687 0.105582 0.5 0 0 0 
218 1 0.565259 0.0889157 0.5 0 0 0 
219 1 0.600402 0.0889157 0.5 0 0 0 
239 1 0.58283 0.0944713 0.5 0 0 0 
259 1 0.58283 0.105582 0.5 0 0 0 
220 1 0.635544 0.0889157 0.5 0 0 0 
240 1 0.617973 0.0944713 0.5 0 0 0 
241 1 0.653116 0.0944713 0.5 0 0 0 
260 1 0.617973 0.105582 0.5 0 0 0 
261 1 0.653116 0.105582 0.5 0 0 0 
278 1 0.530116 0.111138 0.5 0 0 0 
299 1 0.530116 0.122249 0.5 0 0 0 
319 1 0.512544 0.127805 0.5 0 0 0 
320 1 0.547687 0.127805 0.5 0 0 0 
279 1 0.565259 0.111138 0.5 0 0 0 
280 1 0.600402 0.111138 0.5 0 0 0 
300 1 0.565259 0.122249 0.5 0 0 0 
301 1 0.600402 0.122249 0.5 0 0 0 
321 1 0.58283 0.127805 0.5 0 0 0 
281 1 0.635544 0.111138 0.5 0 0 0 
302 1 0.635544 0.122249 0.5 0 0 0 
322 1 0.617973 0.127805 0.5 0 0 0 
323 1 0.653116 0.127805 0.5 0 0 0 
339 1 0.512544 0.138916 0.5 0 0 0 
340 1 0.547687 0.138916 0.5 0 0 0 
360 1 0.530116 0.144471 0.5 0 0 0 
381 1 0.530116 0.155582 0.5 0 0 0 
401 1 0.512544 0.161138 0.5 0 0 0 
402 1 0.547687 0.161138 0.5 0 0 0 
341 1 0.58283 0.138916 0.5 0 0 0 
361 1 0.565259 0.144471 0.5 0 0 0 
362 1 0.600402 0.144471 0.5 0 0 0 