 # Position data
 378 atoms
 7 atom types 46 4 184 40 54 46 4
 0.000000  10.000000 xlo xhi
 0.000000  50.000000 xlo xhi
 0.000000  38.347500 xlo xhi
