 # Position data
 518 atoms
 7 atom types 58 4 232 64 98 58 4
 0.000000  10.000000 xlo xhi
 0.000000  60.000000 xlo xhi
 0.000000  55.390900 xlo xhi
