 # Position data
     342 atoms
  3 atom types    232    66    44
  0.0000000  10.0000000 xlo xhi
  0.0000000  60.0000000 ylo yhi
  0.0000000  29.8258991 zlo zhi
                
 Atoms          
                
       1  1   5.0000000  12.9925203   1.4237125
       2  1   5.0000000  12.9925203   2.8439949
       3  1   5.0000000  12.9925203   5.6845479
       4  1   5.0000000  12.9925203   7.1048274
       5  1   5.0000000  12.9925203  22.7279320
       6  1   5.0000000  12.9925203  24.1482105
       7  1   5.0000000  12.9925203  26.9887695
       8  1   5.0000000  12.9925203  28.4090500
       9  1   5.0000000  14.2225199   0.7135727
      10  1   5.0000000  15.4525204   1.4237125
      11  1   5.0000000  15.4525204   2.8439949
      12  1   5.0000000  14.2225199   3.5541437
      13  1   5.0000000  16.6825199   0.7135727
      14  1   5.0000000  19.1425190   0.7135727
      15  1   5.0000000  17.9125195   1.4237125
      16  1   5.0000000  17.9125195   2.8439949
      17  1   5.0000000  16.6825199   3.5541437
      18  1   5.0000000  19.1425190   3.5541437
      19  1   5.0000000  14.2225199   4.9744234
      20  1   5.0000000  15.4525204   5.6845479
      21  1   5.0000000  15.4525204   7.1048274
      22  1   5.0000000  16.6825199   4.9744234
      23  1   5.0000000  19.1425190   4.9744234
      24  1   5.0000000  17.9125195   5.6845479
      25  1   5.0000000  17.9125195   7.1048274
      26  1   5.0000000  14.2225199   7.8149819
      27  1   5.0000000  16.6825199   7.8149819
      28  1   5.0000000  19.1425190   7.8149819
      29  1   5.0000000  14.2225199  22.0177784
      30  1   5.0000000  16.6825199  22.0177784
      31  1   5.0000000  19.1425190  22.0177784
      32  1   5.0000000  15.4525204  22.7279320
      33  1   5.0000000  15.4525204  24.1482105
      34  1   5.0000000  14.2225199  24.8583355
      35  1   5.0000000  17.9125195  22.7279320
      36  1   5.0000000  17.9125195  24.1482105
      37  1   5.0000000  16.6825199  24.8583355
      38  1   5.0000000  19.1425190  24.8583355
      39  1   5.0000000  14.2225199  26.2786446
      40  1   5.0000000  15.4525204  26.9887695
      41  1   5.0000000  15.4525204  28.4090500
      42  1   5.0000000  14.2225199  29.1192055
      43  1   5.0000000  16.6825199  26.2786446
      44  1   5.0000000  19.1425190  26.2786446
      45  1   5.0000000  17.9125195  26.9887695
      46  1   5.0000000  17.9125195  28.4090500
      47  1   5.0000000  16.6825199  29.1192055
      48  1   5.0000000  19.1425190  29.1192055
      49  1   5.0000000  21.6025200   0.7135727
      50  1   5.0000000  20.3725204   1.4237125
      51  1   5.0000000  22.8325214   1.4237125
      52  1   5.0000000  20.3725204   2.8439949
      53  1   5.0000000  22.8325214   2.8439949
      54  1   5.0000000  21.6025200   3.5541437
      55  1   5.0000000  24.0625210   0.7135727
      56  1   5.0000000  26.5225201   0.7135727
      57  1   5.0000000  25.2925186   1.4237125
      58  1   5.0000000  25.2925186   2.8439949
      59  1   5.0000000  24.0625210   3.5541437
      60  1   5.0000000  26.5225201   3.5541437
      61  1   5.0000000  21.6025200   4.9744234
      62  1   5.0000000  20.3725204   5.6845479
      63  1   5.0000000  22.8325214   5.6845479
      64  1   5.0000000  20.3725204   7.1048274
      65  1   5.0000000  22.8325214   7.1048274
      66  1   5.0000000  24.0625210   4.9744234
      67  1   5.0000000  26.5225201   4.9744234
      68  1   5.0000000  25.2925186   5.6845479
      69  1   5.0000000  25.2925186   7.1048274
      70  1   5.0000000  21.6025200   7.8149819
      71  1   5.0000000  24.0625210   7.8149819
      72  1   5.0000000  26.5225201   7.8149819
      73  1   5.0000000  21.6025200  22.0177784
      74  1   5.0000000  24.0625210  22.0177784
      75  1   5.0000000  26.5225201  22.0177784
      76  1   5.0000000  20.3725204  22.7279320
      77  1   5.0000000  22.8325214  22.7279320
      78  1   5.0000000  20.3725204  24.1482105
      79  1   5.0000000  22.8325214  24.1482105
      80  1   5.0000000  21.6025200  24.8583355
      81  1   5.0000000  25.2925186  22.7279320
      82  1   5.0000000  25.2925186  24.1482105
      83  1   5.0000000  24.0625210  24.8583355
      84  1   5.0000000  26.5225201  24.8583355
      85  1   5.0000000  21.6025200  26.2786446
      86  1   5.0000000  20.3725204  26.9887695
      87  1   5.0000000  22.8325214  26.9887695
      88  1   5.0000000  20.3725204  28.4090500
      89  1   5.0000000  22.8325214  28.4090500
      90  1   5.0000000  21.6025200  29.1192055
      91  1   5.0000000  24.0625210  26.2786446
      92  1   5.0000000  26.5225201  26.2786446
      93  1   5.0000000  25.2925186  26.9887695
      94  1   5.0000000  25.2925186  28.4090500
      95  1   5.0000000  24.0625210  29.1192055
      96  1   5.0000000  26.5225201  29.1192055
      97  1   5.0000000  28.9825211   0.7135727
      98  1   5.0000000  27.7525196   1.4237125
      99  1   5.0000000  27.7525196   2.8439949
     100  1   5.0000000  28.9825211   3.5541437
     101  1   5.0000000  31.4425201   0.7135727
     102  1   5.0000000  30.2125206   1.4237125
     103  1   5.0000000  32.6725197   1.4237125
     104  1   5.0000000  30.2125206   2.8439949
     105  1   5.0000000  32.6725197   2.8439949
     106  1   5.0000000  31.4425201   3.5541437
     107  1   5.0000000  28.9825211   4.9744234
     108  1   5.0000000  27.7525196   5.6845479
     109  1   5.0000000  27.7525196   7.1048274
     110  1   5.0000000  31.4425201   4.9744234
     111  1   5.0000000  30.2125206   5.6845479
     112  1   5.0000000  32.6725197   5.6845479
     113  1   5.0000000  30.2125206   7.1048274
     114  1   5.0000000  32.6725197   7.1048274
     115  1   5.0000000  28.9825211   7.8149819
     116  1   5.0000000  31.4425201   7.8149819
     117  1   5.0000000  28.9825211  22.0177784
     118  1   5.0000000  31.4425201  22.0177784
     119  1   5.0000000  27.7525196  22.7279320
     120  1   5.0000000  27.7525196  24.1482105
     121  1   5.0000000  28.9825211  24.8583355
     122  1   5.0000000  30.2125206  22.7279320
     123  1   5.0000000  32.6725197  22.7279320
     124  1   5.0000000  30.2125206  24.1482105
     125  1   5.0000000  32.6725197  24.1482105
     126  1   5.0000000  31.4425201  24.8583355
     127  1   5.0000000  28.9825211  26.2786446
     128  1   5.0000000  27.7525196  26.9887695
     129  1   5.0000000  27.7525196  28.4090500
     130  1   5.0000000  28.9825211  29.1192055
     131  1   5.0000000  31.4425201  26.2786446
     132  1   5.0000000  30.2125206  26.9887695
     133  1   5.0000000  32.6725197  26.9887695
     134  1   5.0000000  30.2125206  28.4090500
     135  1   5.0000000  32.6725197  28.4090500
     136  1   5.0000000  31.4425201  29.1192055
     137  1   5.0000000  33.9025192   0.7135727
     138  1   5.0000000  36.3625221   0.7135727
     139  1   5.0000000  35.1325226   1.4237125
     140  1   5.0000000  35.1325226   2.8439949
     141  1   5.0000000  33.9025192   3.5541437
     142  1   5.0000000  36.3625221   3.5541437
     143  1   5.0000000  38.8225174   0.7135727
     144  1   5.0000000  37.5925179   1.4237125
     145  1   5.0000000  37.5925179   2.8439949
     146  1   5.0000000  38.8225174   3.5541437
     147  1   5.0000000  33.9025192   4.9744234
     148  1   5.0000000  36.3625221   4.9744234
     149  1   5.0000000  35.1325226   5.6845479
     150  1   5.0000000  35.1325226   7.1048274
     151  1   5.0000000  38.8225174   4.9744234
     152  1   5.0000000  37.5925179   5.6845479
     153  1   5.0000000  37.5925179   7.1048274
     154  1   5.0000000  33.9025192   7.8149819
     155  1   5.0000000  36.3625221   7.8149819
     156  1   5.0000000  38.8225174   7.8149819
     157  1   5.0000000  33.9025192  22.0177784
     158  1   5.0000000  36.3625221  22.0177784
     159  1   5.0000000  38.8225174  22.0177784
     160  1   5.0000000  35.1325226  22.7279320
     161  1   5.0000000  35.1325226  24.1482105
     162  1   5.0000000  33.9025192  24.8583355
     163  1   5.0000000  36.3625221  24.8583355
     164  1   5.0000000  37.5925179  22.7279320
     165  1   5.0000000  37.5925179  24.1482105
     166  1   5.0000000  38.8225174  24.8583355
     167  1   5.0000000  33.9025192  26.2786446
     168  1   5.0000000  36.3625221  26.2786446
     169  1   5.0000000  35.1325226  26.9887695
     170  1   5.0000000  35.1325226  28.4090500
     171  1   5.0000000  33.9025192  29.1192055
     172  1   5.0000000  36.3625221  29.1192055
     173  1   5.0000000  38.8225174  26.2786446
     174  1   5.0000000  37.5925179  26.9887695
     175  1   5.0000000  37.5925179  28.4090500
     176  1   5.0000000  38.8225174  29.1192055
     177  1   5.0000000  41.2825203   0.7135727
     178  1   5.0000000  40.0525208   1.4237125
     179  1   5.0000000  42.5125198   1.4237125
     180  1   5.0000000  40.0525208   2.8439949
     181  1   5.0000000  42.5125198   2.8439949
     182  1   5.0000000  41.2825203   3.5541437
     183  1   5.0000000  43.7425194   0.7135727
     184  1   5.0000000  46.2025185   0.7135727
     185  1   5.0000000  44.9725189   1.4237125
     186  1   5.0000000  44.9725189   2.8439949
     187  1   5.0000000  43.7425194   3.5541437
     188  1   5.0000000  46.2025185   3.5541437
     189  1   5.0000000  41.2825203   4.9744234
     190  1   5.0000000  40.0525208   5.6845479
     191  1   5.0000000  42.5125198   5.6845479
     192  1   5.0000000  40.0525208   7.1048274
     193  1   5.0000000  42.5125198   7.1048274
     194  1   5.0000000  43.7425194   4.9744234
     195  1   5.0000000  46.2025185   4.9744234
     196  1   5.0000000  44.9725189   5.6845479
     197  1   5.0000000  44.9725189   7.1048274
     198  1   5.0000000  41.2825203   7.8149819
     199  1   5.0000000  43.7425194   7.8149819
     200  1   5.0000000  46.2025185   7.8149819
     201  1   5.0000000  41.2825203  22.0177784
     202  1   5.0000000  43.7425194  22.0177784
     203  1   5.0000000  46.2025185  22.0177784
     204  1   5.0000000  40.0525208  22.7279320
     205  1   5.0000000  42.5125198  22.7279320
     206  1   5.0000000  40.0525208  24.1482105
     207  1   5.0000000  42.5125198  24.1482105
     208  1   5.0000000  41.2825203  24.8583355
     209  1   5.0000000  44.9725189  22.7279320
     210  1   5.0000000  44.9725189  24.1482105
     211  1   5.0000000  43.7425194  24.8583355
     212  1   5.0000000  46.2025185  24.8583355
     213  1   5.0000000  41.2825203  26.2786446
     214  1   5.0000000  40.0525208  26.9887695
     215  1   5.0000000  42.5125198  26.9887695
     216  1   5.0000000  40.0525208  28.4090500
     217  1   5.0000000  42.5125198  28.4090500
     218  1   5.0000000  41.2825203  29.1192055
     219  1   5.0000000  43.7425194  26.2786446
     220  1   5.0000000  46.2025185  26.2786446
     221  1   5.0000000  44.9725189  26.9887695
     222  1   5.0000000  44.9725189  28.4090500
     223  1   5.0000000  43.7425194  29.1192055
     224  1   5.0000000  46.2025185  29.1192055
     225  1   5.0000000  47.4325218   1.4237125
     226  1   5.0000000  47.4325218   2.8439949
     227  1   5.0000000  47.4325218   5.6845479
     228  1   5.0000000  47.4325218   7.1048274
     229  1   5.0000000  47.4325218  22.7279320
     230  1   5.0000000  47.4325218  24.1482105
     231  1   5.0000000  47.4325218  26.9887695
     232  1   5.0000000  47.4325218  28.4090500
     233  2   5.0000000  24.0625210   9.2352619
     234  2   5.0000000  26.5225201   9.2352619
     235  2   5.0000000  25.2925186   9.9453859
     236  2   5.0000000  25.2925186  11.3656664
     237  2   5.0000000  24.0625210  12.0758209
     238  2   5.0000000  26.5225201  12.0758209
     239  2   5.0000000  24.0625210  13.4960995
     240  2   5.0000000  26.5225201  13.4960995
     241  2   5.0000000  25.2925186  14.2062540
     242  2   5.0000000  25.2925186  15.6265345
     243  2   5.0000000  24.0625210  16.3366604
     244  2   5.0000000  26.5225201  16.3366604
     245  2   5.0000000  24.0625210  17.7569389
     246  2   5.0000000  26.5225201  17.7569389
     247  2   5.0000000  25.2925186  18.4670925
     248  2   5.0000000  25.2925186  19.8873730
     249  2   5.0000000  24.0625210  20.5974960
     250  2   5.0000000  26.5225201  20.5974960
     251  2   5.0000000  28.9825211   9.2352619
     252  2   5.0000000  27.7525196   9.9453859
     253  2   5.0000000  31.4425201   9.2352619
     254  2   5.0000000  30.2125206   9.9453859
     255  2   5.0000000  32.6725197   9.9453859
     256  2   5.0000000  27.7525196  11.3656664
     257  2   5.0000000  28.9825211  12.0758209
     258  2   5.0000000  28.9825211  13.4960995
     259  2   5.0000000  27.7525196  14.2062540
     260  2   5.0000000  30.2125206  11.3656664
     261  2   5.0000000  32.6725197  11.3656664
     262  2   5.0000000  31.4425201  12.0758209
     263  2   5.0000000  31.4425201  13.4960995
     264  2   5.0000000  30.2125206  14.2062540
     265  2   5.0000000  32.6725197  14.2062540
     266  2   5.0000000  27.7525196  15.6265345
     267  2   5.0000000  28.9825211  16.3366604
     268  2   5.0000000  28.9825211  17.7569389
     269  2   5.0000000  27.7525196  18.4670925
     270  2   5.0000000  30.2125206  15.6265345
     271  2   5.0000000  32.6725197  15.6265345
     272  2   5.0000000  31.4425201  16.3366604
     273  2   5.0000000  31.4425201  17.7569389
     274  2   5.0000000  30.2125206  18.4670925
     275  2   5.0000000  32.6725197  18.4670925
     276  2   5.0000000  27.7525196  19.8873730
     277  2   5.0000000  28.9825211  20.5974960
     278  2   5.0000000  30.2125206  19.8873730
     279  2   5.0000000  32.6725197  19.8873730
     280  2   5.0000000  31.4425201  20.5974960
     281  2   5.0000000  33.9025192   9.2352619
     282  2   5.0000000  36.3625221   9.2352619
     283  2   5.0000000  35.1325226   9.9453859
     284  2   5.0000000  35.1325226  11.3656664
     285  2   5.0000000  33.9025192  12.0758209
     286  2   5.0000000  36.3625221  12.0758209
     287  2   5.0000000  33.9025192  13.4960995
     288  2   5.0000000  36.3625221  13.4960995
     289  2   5.0000000  35.1325226  14.2062540
     290  2   5.0000000  35.1325226  15.6265345
     291  2   5.0000000  33.9025192  16.3366604
     292  2   5.0000000  36.3625221  16.3366604
     293  2   5.0000000  33.9025192  17.7569389
     294  2   5.0000000  36.3625221  17.7569389
     295  2   5.0000000  35.1325226  18.4670925
     296  2   5.0000000  35.1325226  19.8873730
     297  2   5.0000000  33.9025192  20.5974960
     298  2   5.0000000  36.3625221  20.5974960
     299  3   5.0000000  12.0484200   0.8786531
     300  3   5.0000000  12.0484200   3.3890572
     301  3   5.0000000  12.0484200   5.1395092
     302  3   5.0000000  12.0484200   7.6498952
     303  3   5.0000000  12.0484200  22.1828651
     304  3   5.0000000  12.0484200  24.6932793
     305  3   5.0000000  12.0484200  26.4437008
     306  3   5.0000000  12.0484200  28.9541187
     307  3   5.0000000  14.2225199   8.9050884
     308  3   5.0000000  16.6825199   8.9050884
     309  3   5.0000000  19.1425190   8.9050884
     310  3   5.0000000  14.2225199  20.9276695
     311  3   5.0000000  16.6825199  20.9276695
     312  3   5.0000000  19.1425190  20.9276695
     313  3   5.0000000  21.6025200   8.9050884
     314  3   5.0000000  23.1184216   9.7803297
     315  3   5.0000000  23.1184216  11.5307531
     316  3   5.0000000  23.1184216  14.0411692
     317  3   5.0000000  23.1184216  15.7915907
     318  3   5.0000000  23.1184216  18.3020058
     319  3   5.0000000  23.1184216  20.0524597
     320  3   5.0000000  21.6025200  20.9276695
     321  3   5.0000000  38.8225174   8.9050884
     322  3   5.0000000  37.3065605   9.7803297
     323  3   5.0000000  37.3065605  11.5307531
     324  3   5.0000000  37.3065605  14.0411692
     325  3   5.0000000  37.3065605  15.7915907
     326  3   5.0000000  37.3065605  18.3020058
     327  3   5.0000000  37.3065605  20.0524597
     328  3   5.0000000  38.8225174  20.9276695
     329  3   5.0000000  41.2825203   8.9050884
     330  3   5.0000000  43.7425194   8.9050884
     331  3   5.0000000  46.2025185   8.9050884
     332  3   5.0000000  41.2825203  20.9276695
     333  3   5.0000000  43.7425194  20.9276695
     334  3   5.0000000  46.2025185  20.9276695
     335  3   5.0000000  48.3765602   0.8786531
     336  3   5.0000000  48.3765602   3.3890572
     337  3   5.0000000  48.3765602   5.1395092
     338  3   5.0000000  48.3765602   7.6498952
     339  3   5.0000000  48.3765602  22.1828651
     340  3   5.0000000  48.3765602  24.6932793
     341  3   5.0000000  48.3765602  26.4437008
     342  3   5.0000000  48.3765602  28.9541187
