  Position data
  
      38 atoms
  
  2 atom types
  
 0.0  40.0000000 xlo xhi
 0.0   4.2607999 ylo yhi
 0.0  10.0000000 zlo zhi
  
  Masses
  
  1 10.0000000 C 
  2 10.0000000 H 
  
  Atoms
  
      1  1  11.3896503   0.7135733   5.0000000
      2  1  13.8496494   0.7135733   5.0000000
      3  1  16.3096485   0.7135733   5.0000000
      4  1  18.7696476   0.7135733   5.0000000
      5  1  21.2296467   0.7135733   5.0000000
      6  1  23.6896458   0.7135733   5.0000000
      7  1  26.1496429   0.7135733   5.0000000
      8  1  28.6096420   0.7135733   5.0000000
      9  1  10.1596508   1.4237138   5.0000000
     10  1  12.6196499   1.4237138   5.0000000
     11  1  15.0796490   1.4237138   5.0000000
     12  1  17.5396481   1.4237138   5.0000000
     13  1  19.9996471   1.4237138   5.0000000
     14  1  22.4596462   1.4237138   5.0000000
     15  1  24.9196453   1.4237138   5.0000000
     16  1  27.3796425   1.4237138   5.0000000
     17  1  29.8396416   1.4237138   5.0000000
     18  1  10.1596508   2.8439949   5.0000000
     19  1  12.6196499   2.8439949   5.0000000
     20  1  15.0796490   2.8439949   5.0000000
     21  1  17.5396481   2.8439949   5.0000000
     22  1  19.9996471   2.8439949   5.0000000
     23  1  22.4596462   2.8439949   5.0000000
     24  1  24.9196453   2.8439949   5.0000000
     25  1  27.3796425   2.8439949   5.0000000
     26  1  29.8396416   2.8439949   5.0000000
     27  1  11.3896503   3.5541353   5.0000000
     28  1  13.8496494   3.5541353   5.0000000
     29  1  16.3096485   3.5541353   5.0000000
     30  1  18.7696476   3.5541353   5.0000000
     31  1  21.2296467   3.5541353   5.0000000
     32  1  23.6896458   3.5541353   5.0000000
     33  1  26.1496429   3.5541353   5.0000000
     34  1  28.6096420   3.5541353   5.0000000
     35  2   9.1723824   0.8537139   5.0000000
     36  2  30.8269119   0.8537139   5.0000000
     37  2   9.1723824   3.4139948   5.0000000
     38  2  30.8269119   3.4139948   5.0000000
