# 0 2 1 0 0       0.0000000 4 2 0 w/o strain (not sorted)
62 atoms
2 atom types 58 4
    0.000000   10.000000 xlo xhi
    0.000000   60.000000 ylo yhi
    0.000000    4.260800 zlo zhi
 
 Atoms
 
       1  1    5.000000   12.383040    1.423712
       2  1    5.000000   12.383040    2.843994
       3  1    5.000000   13.613040    0.713573
       4  1    5.000000   16.073040    0.713573
       5  1    5.000000   14.843040    1.423712
       6  1    5.000000   14.843040    2.843994
       7  1    5.000000   13.613040    3.554133
       8  1    5.000000   16.073040    3.554133
       9  1    5.000000   18.533039    0.713573
      10  1    5.000000   17.303040    1.423712
      11  1    5.000000   19.763041    1.423712
      12  1    5.000000   17.303040    2.843994
      13  1    5.000000   19.763041    2.843994
      14  1    5.000000   18.533039    3.554133
      15  1    5.000000   20.993040    0.713573
      16  1    5.000000   22.223040    1.423712
      17  1    5.000000   22.223040    2.843994
      18  1    5.000000   20.993040    3.554133
      19  1    5.000000   23.453041    0.713573
      20  1    5.000000   25.913040    0.713573
      21  1    5.000000   24.683039    1.423712
      22  1    5.000000   24.683039    2.843994
      23  1    5.000000   23.453041    3.554133
      24  1    5.000000   25.913040    3.554133
      25  1    5.000000   28.373039    0.713573
      26  1    5.000000   27.143040    1.423712
      27  1    5.000000   29.603041    1.423712
      28  1    5.000000   27.143040    2.843994
      29  1    5.000000   29.603041    2.843994
      30  1    5.000000   28.373039    3.554133
      31  1    5.000000   30.833040    0.713573
      32  1    5.000000   33.293041    0.713573
      33  1    5.000000   32.063042    1.423712
      34  1    5.000000   32.063042    2.843994
      35  1    5.000000   30.833040    3.554133
      36  1    5.000000   33.293041    3.554133
      37  1    5.000000   35.753040    0.713573
      38  1    5.000000   34.523041    1.423712
      39  1    5.000000   34.523041    2.843994
      40  1    5.000000   35.753040    3.554133
      41  1    5.000000   38.213039    0.713573
      42  1    5.000000   36.983040    1.423712
      43  1    5.000000   39.443039    1.423712
      44  1    5.000000   36.983040    2.843994
      45  1    5.000000   39.443039    2.843994
      46  1    5.000000   38.213039    3.554133
      47  1    5.000000   40.673038    0.713573
      48  1    5.000000   43.133041    0.713573
      49  1    5.000000   41.903038    1.423712
      50  1    5.000000   41.903038    2.843994
      51  1    5.000000   40.673038    3.554133
      52  1    5.000000   43.133041    3.554133
      53  1    5.000000   45.593040    0.713573
      54  1    5.000000   44.363041    1.423712
      55  1    5.000000   44.363041    2.843994
      56  1    5.000000   45.593040    3.554133
      57  1    5.000000   46.823040    1.423712
      58  1    5.000000   46.823040    2.843994
      59  2    5.000000   11.438940    0.878654
      60  2    5.000000   11.438940    3.389057
      61  2    5.000000   47.767082    0.878654
      62  2    5.000000   47.767082    3.389057
