ITEM: TIMESTEP
0
ITEM: NUMBER OF ATOMS
1156
ITEM: BOX BOUNDS pp pp pp
0.0000000000000000e+00 6.0000000000000000e+01
0.0000000000000000e+00 1.2782530210000000e+02
0.0000000000000000e+00 1.0000000000000000e+01
ITEM: ATOMS id type xs ys zs fx fy fz 
15 1 0.206384 0.011138 0.5 0 0 0 
30 1 0.206384 0.0222491 0.5 0 0 0 
581 2 0.189929 0.00667876 0.5 1.07324 0.619631 0 
583 2 0.189929 0.0267083 0.5 1.07324 -0.619631 0 
1 1 0.226884 0.00558241 0.5 0 0 0 
2 1 0.267884 0.00558241 0.5 0 0 0 
16 1 0.247384 0.011138 0.5 0 0 0 
31 1 0.247384 0.0222491 0.5 0 0 0 
3 1 0.308884 0.00558241 0.5 0 0 0 
17 1 0.288384 0.011138 0.5 0 0 0 
18 1 0.329384 0.011138 0.5 0 0 0 
32 1 0.288384 0.0222491 0.5 0 0 0 
33 1 0.329384 0.0222491 0.5 0 0 0 
73 1 0.206384 0.0444713 0.5 0 0 0 
585 2 0.189929 0.0400121 0.5 1.07324 0.619634 0 
45 1 0.226884 0.0278046 0.5 0 0 0 
46 1 0.267884 0.0278046 0.5 0 0 0 
59 1 0.226884 0.0389157 0.5 0 0 0 
60 1 0.267884 0.0389157 0.5 0 0 0 
74 1 0.247384 0.0444713 0.5 0 0 0 
47 1 0.308884 0.0278046 0.5 0 0 0 
61 1 0.308884 0.0389157 0.5 0 0 0 
75 1 0.288384 0.0444713 0.5 0 0 0 
76 1 0.329384 0.0444713 0.5 0 0 0 
88 1 0.206384 0.0555824 0.5 0 0 0 
131 1 0.206384 0.0778046 0.5 0 0 0 
587 2 0.189929 0.0600416 0.5 1.07324 -0.619634 0 
589 2 0.189929 0.0733454 0.5 1.07324 0.619636 0 
89 1 0.247384 0.0555824 0.5 0 0 0 
103 1 0.226884 0.061138 0.5 0 0 0 
104 1 0.267884 0.061138 0.5 0 0 0 
117 1 0.226884 0.0722491 0.5 0 0 0 
118 1 0.267884 0.0722491 0.5 0 0 0 
132 1 0.247384 0.0778046 0.5 0 0 0 
90 1 0.288384 0.0555824 0.5 0 0 0 
91 1 0.329384 0.0555824 0.5 0 0 0 
105 1 0.308884 0.061138 0.5 0 0 0 
119 1 0.308884 0.0722491 0.5 0 0 0 
133 1 0.288384 0.0778046 0.5 0 0 0 
134 1 0.329384 0.0778046 0.5 0 0 0 
146 1 0.206384 0.0889157 0.5 0 0 0 
591 2 0.189929 0.093375 0.5 1.07324 -0.619636 0 
593 2 0.189929 0.106679 0.5 1.07323 0.61963 0 
147 1 0.247384 0.0889157 0.5 0 0 0 
161 1 0.226884 0.0944713 0.5 0 0 0 
162 1 0.267884 0.0944713 0.5 0 0 0 
175 1 0.226884 0.105582 0.5 0 0 0 
176 1 0.267884 0.105582 0.5 0 0 0 
148 1 0.288384 0.0889157 0.5 0 0 0 
149 1 0.329384 0.0889157 0.5 0 0 0 
163 1 0.308884 0.0944713 0.5 0 0 0 
177 1 0.308884 0.105582 0.5 0 0 0 
189 1 0.206384 0.111138 0.5 0 0 0 
204 1 0.206384 0.122249 0.5 0 0 0 
595 2 0.189929 0.126708 0.5 1.07323 -0.61963 0 
190 1 0.247384 0.111138 0.5 0 0 0 
205 1 0.247384 0.122249 0.5 0 0 0 
219 1 0.226884 0.127805 0.5 0 0 0 
220 1 0.267884 0.127805 0.5 0 0 0 
191 1 0.288384 0.111138 0.5 0 0 0 
192 1 0.329384 0.111138 0.5 0 0 0 
206 1 0.288384 0.122249 0.5 0 0 0 
207 1 0.329384 0.122249 0.5 0 0 0 
221 1 0.308884 0.127805 0.5 0 0 0 
247 1 0.206384 0.144471 0.5 0 0 0 
262 1 0.206384 0.155582 0.5 0 0 0 
597 2 0.189929 0.140012 0.5 1.07325 0.619644 0 
599 2 0.189929 0.160042 0.5 1.07324 -0.619628 0 
233 1 0.226884 0.138916 0.5 0 0 0 
234 1 0.267884 0.138916 0.5 0 0 0 
248 1 0.247384 0.144471 0.5 0 0 0 
263 1 0.247384 0.155582 0.5 0 0 0 
277 1 0.226884 0.161138 0.5 0 0 0 
278 1 0.267884 0.161138 0.5 0 0 0 
235 1 0.308884 0.138916 0.5 0 0 0 
249 1 0.288384 0.144471 0.5 0 0 0 
250 1 0.329384 0.144471 0.5 0 0 0 
264 1 0.288384 0.155582 0.5 0 0 0 
265 1 0.329384 0.155582 0.5 0 0 0 
279 1 0.308884 0.161138 0.5 0 0 0 
601 2 0.226884 0.170056 0.5 -1.30583e-07 -1.23925 0 
602 2 0.267884 0.170056 0.5 1.17525e-06 -1.23925 0 
603 2 0.308884 0.170056 0.5 -1.30583e-07 -1.23925 0 
689 2 0.226884 0.829997 0.5 -1.30577e-07 1.23924 0 
690 2 0.267884 0.829997 0.5 1.1752e-06 1.23924 0 
691 2 0.308884 0.829997 0.5 -1.30577e-07 1.23924 0 
305 1 0.206384 0.844471 0.5 0 0 0 
320 1 0.206384 0.855582 0.5 0 0 0 
697 2 0.189929 0.840012 0.5 1.07324 0.619629 0 
699 2 0.189929 0.860042 0.5 1.07323 -0.619628 0 
291 1 0.226884 0.838916 0.5 0 0 0 
292 1 0.267884 0.838916 0.5 0 0 0 
306 1 0.247384 0.844471 0.5 0 0 0 
321 1 0.247384 0.855582 0.5 0 0 0 
293 1 0.308884 0.838916 0.5 0 0 0 
307 1 0.288384 0.844471 0.5 0 0 0 
308 1 0.329384 0.844471 0.5 0 0 0 
322 1 0.288384 0.855582 0.5 0 0 0 
323 1 0.329384 0.855582 0.5 0 0 0 
363 1 0.206384 0.877805 0.5 0 0 0 
701 2 0.189929 0.873345 0.5 1.07323 0.619628 0 
335 1 0.226884 0.861138 0.5 0 0 0 
336 1 0.267884 0.861138 0.5 0 0 0 
349 1 0.226884 0.872249 0.5 0 0 0 
350 1 0.267884 0.872249 0.5 0 0 0 
364 1 0.247384 0.877805 0.5 0 0 0 
337 1 0.308884 0.861138 0.5 0 0 0 
351 1 0.308884 0.872249 0.5 0 0 0 
365 1 0.288384 0.877805 0.5 0 0 0 
366 1 0.329384 0.877805 0.5 0 0 0 
378 1 0.206384 0.888916 0.5 0 0 0 
421 1 0.206384 0.911138 0.5 0 0 0 
703 2 0.189929 0.893375 0.5 1.07324 -0.619629 0 
705 2 0.189929 0.906679 0.5 1.07323 0.619628 0 
379 1 0.247384 0.888916 0.5 0 0 0 
393 1 0.226884 0.894471 0.5 0 0 0 
394 1 0.267884 0.894471 0.5 0 0 0 
407 1 0.226884 0.905582 0.5 0 0 0 
408 1 0.267884 0.905582 0.5 0 0 0 
422 1 0.247384 0.911138 0.5 0 0 0 
380 1 0.288384 0.888916 0.5 0 0 0 
381 1 0.329384 0.888916 0.5 0 0 0 
395 1 0.308884 0.894471 0.5 0 0 0 
409 1 0.308884 0.905582 0.5 0 0 0 
423 1 0.288384 0.911138 0.5 0 0 0 
424 1 0.329384 0.911138 0.5 0 0 0 
436 1 0.206384 0.922249 0.5 0 0 0 
707 2 0.189929 0.926708 0.5 1.07324 -0.619629 0 
709 2 0.189929 0.940012 0.5 1.07323 0.619628 0 
437 1 0.247384 0.922249 0.5 0 0 0 
451 1 0.226884 0.927805 0.5 0 0 0 
452 1 0.267884 0.927805 0.5 0 0 0 
465 1 0.226884 0.938916 0.5 0 0 0 
466 1 0.267884 0.938916 0.5 0 0 0 
438 1 0.288384 0.922249 0.5 0 0 0 
439 1 0.329384 0.922249 0.5 0 0 0 
453 1 0.308884 0.927805 0.5 0 0 0 
467 1 0.308884 0.938916 0.5 0 0 0 
479 1 0.206384 0.944471 0.5 0 0 0 
494 1 0.206384 0.955582 0.5 0 0 0 
711 2 0.189929 0.960042 0.5 1.07323 -0.619628 0 
480 1 0.247384 0.944471 0.5 0 0 0 
495 1 0.247384 0.955582 0.5 0 0 0 
509 1 0.226884 0.961138 0.5 0 0 0 
510 1 0.267884 0.961138 0.5 0 0 0 
481 1 0.288384 0.944471 0.5 0 0 0 
482 1 0.329384 0.944471 0.5 0 0 0 
496 1 0.288384 0.955582 0.5 0 0 0 
497 1 0.329384 0.955582 0.5 0 0 0 
511 1 0.308884 0.961138 0.5 0 0 0 
537 1 0.206384 0.977805 0.5 0 0 0 
552 1 0.206384 0.988916 0.5 0 0 0 
713 2 0.189929 0.973345 0.5 1.07324 0.619629 0 
715 2 0.189929 0.993375 0.5 1.07323 -0.619628 0 
523 1 0.226884 0.972249 0.5 0 0 0 
524 1 0.267884 0.972249 0.5 0 0 0 
538 1 0.247384 0.977805 0.5 0 0 0 
553 1 0.247384 0.988916 0.5 0 0 0 
567 1 0.226884 0.994471 0.5 0 0 0 
568 1 0.267884 0.994471 0.5 0 0 0 
525 1 0.308884 0.972249 0.5 0 0 0 
539 1 0.288384 0.977805 0.5 0 0 0 
540 1 0.329384 0.977805 0.5 0 0 0 
554 1 0.288384 0.988916 0.5 0 0 0 
555 1 0.329384 0.988916 0.5 0 0 0 
569 1 0.308884 0.994471 0.5 0 0 0 
4 1 0.349884 0.00558241 0.5 0 0 0 
19 1 0.370384 0.011138 0.5 0 0 0 
34 1 0.370384 0.0222491 0.5 0 0 0 
5 1 0.390884 0.00558241 0.5 0 0 0 
6 1 0.431884 0.00558241 0.5 0 0 0 
20 1 0.411384 0.011138 0.5 0 0 0 
35 1 0.411384 0.0222491 0.5 0 0 0 
7 1 0.472884 0.00558241 0.5 0 0 0 
21 1 0.452384 0.011138 0.5 0 0 0 
22 1 0.493384 0.011138 0.5 0 0 0 
36 1 0.452384 0.0222491 0.5 0 0 0 
37 1 0.493384 0.0222491 0.5 0 0 0 
48 1 0.349884 0.0278046 0.5 0 0 0 
62 1 0.349884 0.0389157 0.5 0 0 0 
77 1 0.370384 0.0444713 0.5 0 0 0 
49 1 0.390884 0.0278046 0.5 0 0 0 
50 1 0.431884 0.0278046 0.5 0 0 0 
63 1 0.390884 0.0389157 0.5 0 0 0 
64 1 0.431884 0.0389157 0.5 0 0 0 
78 1 0.411384 0.0444713 0.5 0 0 0 
51 1 0.472884 0.0278046 0.5 0 0 0 
65 1 0.472884 0.0389157 0.5 0 0 0 
79 1 0.452384 0.0444713 0.5 0 0 0 
80 1 0.493384 0.0444713 0.5 0 0 0 
92 1 0.370384 0.0555824 0.5 0 0 0 
106 1 0.349884 0.061138 0.5 0 0 0 
120 1 0.349884 0.0722491 0.5 0 0 0 
135 1 0.370384 0.0778046 0.5 0 0 0 
93 1 0.411384 0.0555824 0.5 0 0 0 
107 1 0.390884 0.061138 0.5 0 0 0 
108 1 0.431884 0.061138 0.5 0 0 0 
121 1 0.390884 0.0722491 0.5 0 0 0 
122 1 0.431884 0.0722491 0.5 0 0 0 
136 1 0.411384 0.0778046 0.5 0 0 0 
94 1 0.452384 0.0555824 0.5 0 0 0 
95 1 0.493384 0.0555824 0.5 0 0 0 
109 1 0.472884 0.061138 0.5 0 0 0 
123 1 0.472884 0.0722491 0.5 0 0 0 
137 1 0.452384 0.0778046 0.5 0 0 0 
138 1 0.493384 0.0778046 0.5 0 0 0 
150 1 0.370384 0.0889157 0.5 0 0 0 
164 1 0.349884 0.0944713 0.5 0 0 0 
178 1 0.349884 0.105582 0.5 0 0 0 
151 1 0.411384 0.0889157 0.5 0 0 0 
165 1 0.390884 0.0944713 0.5 0 0 0 
166 1 0.431884 0.0944713 0.5 0 0 0 
179 1 0.390884 0.105582 0.5 0 0 0 
180 1 0.431884 0.105582 0.5 0 0 0 
152 1 0.452384 0.0889157 0.5 0 0 0 
153 1 0.493384 0.0889157 0.5 0 0 0 
167 1 0.472884 0.0944713 0.5 0 0 0 
181 1 0.472884 0.105582 0.5 0 0 0 
193 1 0.370384 0.111138 0.5 0 0 0 
208 1 0.370384 0.122249 0.5 0 0 0 
222 1 0.349884 0.127805 0.5 0 0 0 
194 1 0.411384 0.111138 0.5 0 0 0 
209 1 0.411384 0.122249 0.5 0 0 0 
223 1 0.390884 0.127805 0.5 0 0 0 
224 1 0.431884 0.127805 0.5 0 0 0 
195 1 0.452384 0.111138 0.5 0 0 0 
196 1 0.493384 0.111138 0.5 0 0 0 
210 1 0.452384 0.122249 0.5 0 0 0 
211 1 0.493384 0.122249 0.5 0 0 0 
225 1 0.472884 0.127805 0.5 0 0 0 
236 1 0.349884 0.138916 0.5 0 0 0 
251 1 0.370384 0.144471 0.5 0 0 0 
266 1 0.370384 0.155582 0.5 0 0 0 
280 1 0.349884 0.161138 0.5 0 0 0 
237 1 0.390884 0.138916 0.5 0 0 0 
238 1 0.431884 0.138916 0.5 0 0 0 
252 1 0.411384 0.144471 0.5 0 0 0 
267 1 0.411384 0.155582 0.5 0 0 0 
281 1 0.390884 0.161138 0.5 0 0 0 
282 1 0.431884 0.161138 0.5 0 0 0 
239 1 0.472884 0.138916 0.5 0 0 0 
253 1 0.452384 0.144471 0.5 0 0 0 
254 1 0.493384 0.144471 0.5 0 0 0 
268 1 0.452384 0.155582 0.5 0 0 0 
269 1 0.493384 0.155582 0.5 0 0 0 
283 1 0.472884 0.161138 0.5 0 0 0 
604 2 0.349884 0.170056 0.5 -1.30583e-07 -1.23925 0 
609 2 0.374429 0.176708 0.5 1.07322 -0.619621 0 
611 2 0.374429 0.190012 0.5 1.07322 0.619621 0 
717 3 0.390884 0.172249 0.5 0 0 0 
718 3 0.431884 0.172249 0.5 0 0 0 
723 3 0.411384 0.177805 0.5 0 0 0 
728 3 0.411384 0.188916 0.5 0 0 0 
719 3 0.472884 0.172249 0.5 0 0 0 
724 3 0.452384 0.177805 0.5 0 0 0 
725 3 0.493384 0.177805 0.5 0 0 0 
729 3 0.452384 0.188916 0.5 0 0 0 
730 3 0.493384 0.188916 0.5 0 0 0 
613 2 0.374429 0.210042 0.5 1.07322 -0.619621 0 
733 3 0.390884 0.194471 0.5 0 0 0 
734 3 0.431884 0.194471 0.5 0 0 0 
739 3 0.390884 0.205582 0.5 0 0 0 
740 3 0.431884 0.205582 0.5 0 0 0 
745 3 0.411384 0.211138 0.5 0 0 0 
735 3 0.472884 0.194471 0.5 0 0 0 
741 3 0.472884 0.205582 0.5 0 0 0 
746 3 0.452384 0.211138 0.5 0 0 0 
747 3 0.493384 0.211138 0.5 0 0 0 
615 2 0.374429 0.223345 0.5 1.07322 0.619621 0 
617 2 0.374429 0.243375 0.5 1.07322 -0.619621 0 
750 3 0.411384 0.222249 0.5 0 0 0 
755 3 0.390884 0.227805 0.5 0 0 0 
756 3 0.431884 0.227805 0.5 0 0 0 
761 3 0.390884 0.238916 0.5 0 0 0 
762 3 0.431884 0.238916 0.5 0 0 0 
767 3 0.411384 0.244471 0.5 0 0 0 
751 3 0.452384 0.222249 0.5 0 0 0 
752 3 0.493384 0.222249 0.5 0 0 0 
757 3 0.472884 0.227805 0.5 0 0 0 
763 3 0.472884 0.238916 0.5 0 0 0 
768 3 0.452384 0.244471 0.5 0 0 0 
769 3 0.493384 0.244471 0.5 0 0 0 
619 2 0.374429 0.256679 0.5 1.07322 0.619621 0 
621 2 0.374429 0.276708 0.5 1.07322 -0.619621 0 
772 3 0.411384 0.255582 0.5 0 0 0 
777 3 0.390884 0.261138 0.5 0 0 0 
778 3 0.431884 0.261138 0.5 0 0 0 
783 3 0.390884 0.272249 0.5 0 0 0 
784 3 0.431884 0.272249 0.5 0 0 0 
773 3 0.452384 0.255582 0.5 0 0 0 
774 3 0.493384 0.255582 0.5 0 0 0 
779 3 0.472884 0.261138 0.5 0 0 0 
785 3 0.472884 0.272249 0.5 0 0 0 
623 2 0.374429 0.290012 0.5 1.07322 0.619621 0 
789 3 0.411384 0.277805 0.5 0 0 0 
794 3 0.411384 0.288916 0.5 0 0 0 
799 3 0.390884 0.294471 0.5 0 0 0 
800 3 0.431884 0.294471 0.5 0 0 0 
790 3 0.452384 0.277805 0.5 0 0 0 
791 3 0.493384 0.277805 0.5 0 0 0 
795 3 0.452384 0.288916 0.5 0 0 0 
796 3 0.493384 0.288916 0.5 0 0 0 
801 3 0.472884 0.294471 0.5 0 0 0 
625 2 0.374429 0.310042 0.5 1.07322 -0.619621 0 
627 2 0.374429 0.323345 0.5 1.07322 0.619621 0 
805 3 0.390884 0.305582 0.5 0 0 0 
806 3 0.431884 0.305582 0.5 0 0 0 
811 3 0.411384 0.311138 0.5 0 0 0 
816 3 0.411384 0.322249 0.5 0 0 0 
821 3 0.390884 0.327805 0.5 0 0 0 
822 3 0.431884 0.327805 0.5 0 0 0 
807 3 0.472884 0.305582 0.5 0 0 0 
812 3 0.452384 0.311138 0.5 0 0 0 
813 3 0.493384 0.311138 0.5 0 0 0 
817 3 0.452384 0.322249 0.5 0 0 0 
818 3 0.493384 0.322249 0.5 0 0 0 
823 3 0.472884 0.327805 0.5 0 0 0 
629 2 0.374429 0.343375 0.5 1.07322 -0.619621 0 
631 2 0.374429 0.356679 0.5 1.07325 0.619654 0 
827 3 0.390884 0.338916 0.5 0 0 0 
828 3 0.431884 0.338916 0.5 0 0 0 
833 3 0.411384 0.344471 0.5 0 0 0 
838 3 0.411384 0.355582 0.5 0 0 0 
829 3 0.472884 0.338916 0.5 0 0 0 
834 3 0.452384 0.344471 0.5 0 0 0 
835 3 0.493384 0.344471 0.5 0 0 0 
839 3 0.452384 0.355582 0.5 0 0 0 
840 3 0.493384 0.355582 0.5 0 0 0 
633 2 0.374429 0.376708 0.5 1.07322 -0.619621 0 
843 3 0.390884 0.361138 0.5 0 0 0 
844 3 0.431884 0.361138 0.5 0 0 0 
849 3 0.390884 0.372249 0.5 0 0 0 
850 3 0.431884 0.372249 0.5 0 0 0 
855 3 0.411384 0.377805 0.5 0 0 0 
845 3 0.472884 0.361138 0.5 0 0 0 
851 3 0.472884 0.372249 0.5 0 0 0 
856 3 0.452384 0.377805 0.5 0 0 0 
857 3 0.493384 0.377805 0.5 0 0 0 
635 2 0.374429 0.390012 0.5 1.07322 0.619621 0 
637 2 0.374429 0.410042 0.5 1.07322 -0.619621 0 
860 3 0.411384 0.388916 0.5 0 0 0 
865 3 0.390884 0.394471 0.5 0 0 0 
866 3 0.431884 0.394471 0.5 0 0 0 
871 3 0.390884 0.405582 0.5 0 0 0 
872 3 0.431884 0.405582 0.5 0 0 0 
877 3 0.411384 0.411138 0.5 0 0 0 
861 3 0.452384 0.388916 0.5 0 0 0 
862 3 0.493384 0.388916 0.5 0 0 0 
867 3 0.472884 0.394471 0.5 0 0 0 
873 3 0.472884 0.405582 0.5 0 0 0 
878 3 0.452384 0.411138 0.5 0 0 0 
879 3 0.493384 0.411138 0.5 0 0 0 
639 2 0.374429 0.423345 0.5 1.07321 0.619629 0 
641 2 0.374429 0.443375 0.5 1.07321 -0.619629 0 
882 3 0.411384 0.422249 0.5 0 0 0 
887 3 0.390884 0.427805 0.5 0 0 0 
888 3 0.431884 0.427805 0.5 0 0 0 
893 3 0.390884 0.438916 0.5 0 0 0 
894 3 0.431884 0.438916 0.5 0 0 0 
883 3 0.452384 0.422249 0.5 0 0 0 
884 3 0.493384 0.422249 0.5 0 0 0 
889 3 0.472884 0.427805 0.5 0 0 0 
895 3 0.472884 0.438916 0.5 0 0 0 
643 2 0.374429 0.456679 0.5 1.07322 0.619621 0 
899 3 0.411384 0.444471 0.5 0 0 0 
904 3 0.411384 0.455582 0.5 0 0 0 
909 3 0.390884 0.461138 0.5 0 0 0 
910 3 0.431884 0.461138 0.5 0 0 0 
900 3 0.452384 0.444471 0.5 0 0 0 
901 3 0.493384 0.444471 0.5 0 0 0 
905 3 0.452384 0.455582 0.5 0 0 0 
906 3 0.493384 0.455582 0.5 0 0 0 
911 3 0.472884 0.461138 0.5 0 0 0 
645 2 0.374429 0.476708 0.5 1.07322 -0.619621 0 
647 2 0.374429 0.490012 0.5 1.07321 0.619629 0 
915 3 0.390884 0.472249 0.5 0 0 0 
916 3 0.431884 0.472249 0.5 0 0 0 
921 3 0.411384 0.477805 0.5 0 0 0 
926 3 0.411384 0.488916 0.5 0 0 0 
931 3 0.390884 0.494471 0.5 0 0 0 
932 3 0.431884 0.494471 0.5 0 0 0 
917 3 0.472884 0.472249 0.5 0 0 0 
922 3 0.452384 0.477805 0.5 0 0 0 
923 3 0.493384 0.477805 0.5 0 0 0 
927 3 0.452384 0.488916 0.5 0 0 0 
928 3 0.493384 0.488916 0.5 0 0 0 
933 3 0.472884 0.494471 0.5 0 0 0 
649 2 0.374429 0.510042 0.5 1.07321 -0.619629 0 
651 2 0.374429 0.523345 0.5 1.07322 0.619621 0 
937 3 0.390884 0.505582 0.5 0 0 0 
938 3 0.431884 0.505582 0.5 0 0 0 
943 3 0.411384 0.511138 0.5 0 0 0 
948 3 0.411384 0.522249 0.5 0 0 0 
939 3 0.472884 0.505582 0.5 0 0 0 
944 3 0.452384 0.511138 0.5 0 0 0 
945 3 0.493384 0.511138 0.5 0 0 0 
949 3 0.452384 0.522249 0.5 0 0 0 
950 3 0.493384 0.522249 0.5 0 0 0 
653 2 0.374429 0.543375 0.5 1.07322 -0.619622 0 
953 3 0.390884 0.527805 0.5 0 0 0 
954 3 0.431884 0.527805 0.5 0 0 0 
959 3 0.390884 0.538916 0.5 0 0 0 
960 3 0.431884 0.538916 0.5 0 0 0 
965 3 0.411384 0.544471 0.5 0 0 0 
955 3 0.472884 0.527805 0.5 0 0 0 
961 3 0.472884 0.538916 0.5 0 0 0 
966 3 0.452384 0.544471 0.5 0 0 0 
967 3 0.493384 0.544471 0.5 0 0 0 
655 2 0.374429 0.556679 0.5 1.07322 0.619621 0 
657 2 0.374429 0.576708 0.5 1.07322 -0.619621 0 
970 3 0.411384 0.555582 0.5 0 0 0 
975 3 0.390884 0.561138 0.5 0 0 0 
976 3 0.431884 0.561138 0.5 0 0 0 
981 3 0.390884 0.572249 0.5 0 0 0 
982 3 0.431884 0.572249 0.5 0 0 0 
987 3 0.411384 0.577805 0.5 0 0 0 
971 3 0.452384 0.555582 0.5 0 0 0 
972 3 0.493384 0.555582 0.5 0 0 0 
977 3 0.472884 0.561138 0.5 0 0 0 
983 3 0.472884 0.572249 0.5 0 0 0 
988 3 0.452384 0.577805 0.5 0 0 0 
989 3 0.493384 0.577805 0.5 0 0 0 
659 2 0.374429 0.590012 0.5 1.07322 0.619621 0 
661 2 0.374429 0.610042 0.5 1.07322 -0.619621 0 
992 3 0.411384 0.588916 0.5 0 0 0 
997 3 0.390884 0.594471 0.5 0 0 0 
998 3 0.431884 0.594471 0.5 0 0 0 
1003 3 0.390884 0.605582 0.5 0 0 0 
1004 3 0.431884 0.605582 0.5 0 0 0 
993 3 0.452384 0.588916 0.5 0 0 0 
994 3 0.493384 0.588916 0.5 0 0 0 
999 3 0.472884 0.594471 0.5 0 0 0 
1005 3 0.472884 0.605582 0.5 0 0 0 
663 2 0.374429 0.623345 0.5 1.07321 0.619637 0 
1009 3 0.411384 0.611138 0.5 0 0 0 
1014 3 0.411384 0.622249 0.5 0 0 0 
1019 3 0.390884 0.627805 0.5 0 0 0 
1020 3 0.431884 0.627805 0.5 0 0 0 
1010 3 0.452384 0.611138 0.5 0 0 0 
1011 3 0.493384 0.611138 0.5 0 0 0 
1015 3 0.452384 0.622249 0.5 0 0 0 
1016 3 0.493384 0.622249 0.5 0 0 0 
1021 3 0.472884 0.627805 0.5 0 0 0 
665 2 0.374429 0.643375 0.5 1.07321 -0.619637 0 
667 2 0.374429 0.656679 0.5 1.07322 0.619621 0 
1025 3 0.390884 0.638916 0.5 0 0 0 
1026 3 0.431884 0.638916 0.5 0 0 0 
1031 3 0.411384 0.644471 0.5 0 0 0 
1036 3 0.411384 0.655582 0.5 0 0 0 
1041 3 0.390884 0.661138 0.5 0 0 0 
1042 3 0.431884 0.661138 0.5 0 0 0 
1027 3 0.472884 0.638916 0.5 0 0 0 
1032 3 0.452384 0.644471 0.5 0 0 0 
1033 3 0.493384 0.644471 0.5 0 0 0 
1037 3 0.452384 0.655582 0.5 0 0 0 
1038 3 0.493384 0.655582 0.5 0 0 0 
1043 3 0.472884 0.661138 0.5 0 0 0 
669 2 0.374429 0.676708 0.5 1.07322 -0.619622 0 
671 2 0.374429 0.690012 0.5 1.07322 0.619621 0 
1047 3 0.390884 0.672249 0.5 0 0 0 
1048 3 0.431884 0.672249 0.5 0 0 0 
1053 3 0.411384 0.677805 0.5 0 0 0 
1058 3 0.411384 0.688916 0.5 0 0 0 
1049 3 0.472884 0.672249 0.5 0 0 0 
1054 3 0.452384 0.677805 0.5 0 0 0 
1055 3 0.493384 0.677805 0.5 0 0 0 
1059 3 0.452384 0.688916 0.5 0 0 0 
1060 3 0.493384 0.688916 0.5 0 0 0 
673 2 0.374429 0.710042 0.5 1.07322 -0.61962 0 
1063 3 0.390884 0.694471 0.5 0 0 0 
1064 3 0.431884 0.694471 0.5 0 0 0 
1069 3 0.390884 0.705582 0.5 0 0 0 
1070 3 0.431884 0.705582 0.5 0 0 0 
1075 3 0.411384 0.711138 0.5 0 0 0 
1065 3 0.472884 0.694471 0.5 0 0 0 
1071 3 0.472884 0.705582 0.5 0 0 0 
1076 3 0.452384 0.711138 0.5 0 0 0 
1077 3 0.493384 0.711138 0.5 0 0 0 
675 2 0.374429 0.723345 0.5 1.07322 0.619621 0 
677 2 0.374429 0.743375 0.5 1.07322 -0.619621 0 
1080 3 0.411384 0.722249 0.5 0 0 0 
1085 3 0.390884 0.727805 0.5 0 0 0 
1086 3 0.431884 0.727805 0.5 0 0 0 
1091 3 0.390884 0.738916 0.5 0 0 0 
1092 3 0.431884 0.738916 0.5 0 0 0 
1097 3 0.411384 0.744471 0.5 0 0 0 
1081 3 0.452384 0.722249 0.5 0 0 0 
1082 3 0.493384 0.722249 0.5 0 0 0 
1087 3 0.472884 0.727805 0.5 0 0 0 
1093 3 0.472884 0.738916 0.5 0 0 0 
1098 3 0.452384 0.744471 0.5 0 0 0 
1099 3 0.493384 0.744471 0.5 0 0 0 
679 2 0.374429 0.756679 0.5 1.07322 0.619622 0 
681 2 0.374429 0.776708 0.5 1.07322 -0.619621 0 
1102 3 0.411384 0.755582 0.5 0 0 0 
1107 3 0.390884 0.761138 0.5 0 0 0 
1108 3 0.431884 0.761138 0.5 0 0 0 
1113 3 0.390884 0.772249 0.5 0 0 0 
1114 3 0.431884 0.772249 0.5 0 0 0 
1103 3 0.452384 0.755582 0.5 0 0 0 
1104 3 0.493384 0.755582 0.5 0 0 0 
1109 3 0.472884 0.761138 0.5 0 0 0 
1115 3 0.472884 0.772249 0.5 0 0 0 
683 2 0.374429 0.790012 0.5 1.07322 0.619621 0 
1119 3 0.411384 0.777805 0.5 0 0 0 
1124 3 0.411384 0.788916 0.5 0 0 0 
1129 3 0.390884 0.794471 0.5 0 0 0 
1130 3 0.431884 0.794471 0.5 0 0 0 
1120 3 0.452384 0.777805 0.5 0 0 0 
1121 3 0.493384 0.777805 0.5 0 0 0 
1125 3 0.452384 0.788916 0.5 0 0 0 
1126 3 0.493384 0.788916 0.5 0 0 0 
1131 3 0.472884 0.794471 0.5 0 0 0 
685 2 0.374429 0.810042 0.5 1.07322 -0.619622 0 
687 2 0.374429 0.823345 0.5 1.07322 0.619621 0 
692 2 0.349884 0.829997 0.5 -1.30577e-07 1.23924 0 
1135 3 0.390884 0.805582 0.5 0 0 0 
1136 3 0.431884 0.805582 0.5 0 0 0 
1141 3 0.411384 0.811138 0.5 0 0 0 
1146 3 0.411384 0.822249 0.5 0 0 0 
1151 3 0.390884 0.827805 0.5 0 0 0 
1152 3 0.431884 0.827805 0.5 0 0 0 
1137 3 0.472884 0.805582 0.5 0 0 0 
1142 3 0.452384 0.811138 0.5 0 0 0 
1143 3 0.493384 0.811138 0.5 0 0 0 
1147 3 0.452384 0.822249 0.5 0 0 0 
1148 3 0.493384 0.822249 0.5 0 0 0 
1153 3 0.472884 0.827805 0.5 0 0 0 
294 1 0.349884 0.838916 0.5 0 0 0 
309 1 0.370384 0.844471 0.5 0 0 0 
324 1 0.370384 0.855582 0.5 0 0 0 
295 1 0.390884 0.838916 0.5 0 0 0 
296 1 0.431884 0.838916 0.5 0 0 0 
310 1 0.411384 0.844471 0.5 0 0 0 
325 1 0.411384 0.855582 0.5 0 0 0 
297 1 0.472884 0.838916 0.5 0 0 0 
311 1 0.452384 0.844471 0.5 0 0 0 
312 1 0.493384 0.844471 0.5 0 0 0 
326 1 0.452384 0.855582 0.5 0 0 0 
327 1 0.493384 0.855582 0.5 0 0 0 
338 1 0.349884 0.861138 0.5 0 0 0 
352 1 0.349884 0.872249 0.5 0 0 0 
367 1 0.370384 0.877805 0.5 0 0 0 
339 1 0.390884 0.861138 0.5 0 0 0 
340 1 0.431884 0.861138 0.5 0 0 0 
353 1 0.390884 0.872249 0.5 0 0 0 
354 1 0.431884 0.872249 0.5 0 0 0 
368 1 0.411384 0.877805 0.5 0 0 0 
341 1 0.472884 0.861138 0.5 0 0 0 
355 1 0.472884 0.872249 0.5 0 0 0 
369 1 0.452384 0.877805 0.5 0 0 0 
370 1 0.493384 0.877805 0.5 0 0 0 
382 1 0.370384 0.888916 0.5 0 0 0 
396 1 0.349884 0.894471 0.5 0 0 0 
410 1 0.349884 0.905582 0.5 0 0 0 
425 1 0.370384 0.911138 0.5 0 0 0 
383 1 0.411384 0.888916 0.5 0 0 0 
397 1 0.390884 0.894471 0.5 0 0 0 
398 1 0.431884 0.894471 0.5 0 0 0 
411 1 0.390884 0.905582 0.5 0 0 0 
412 1 0.431884 0.905582 0.5 0 0 0 
426 1 0.411384 0.911138 0.5 0 0 0 
384 1 0.452384 0.888916 0.5 0 0 0 
385 1 0.493384 0.888916 0.5 0 0 0 
399 1 0.472884 0.894471 0.5 0 0 0 
413 1 0.472884 0.905582 0.5 0 0 0 
427 1 0.452384 0.911138 0.5 0 0 0 
428 1 0.493384 0.911138 0.5 0 0 0 
440 1 0.370384 0.922249 0.5 0 0 0 
454 1 0.349884 0.927805 0.5 0 0 0 
468 1 0.349884 0.938916 0.5 0 0 0 
441 1 0.411384 0.922249 0.5 0 0 0 
455 1 0.390884 0.927805 0.5 0 0 0 
456 1 0.431884 0.927805 0.5 0 0 0 
469 1 0.390884 0.938916 0.5 0 0 0 
470 1 0.431884 0.938916 0.5 0 0 0 
442 1 0.452384 0.922249 0.5 0 0 0 
443 1 0.493384 0.922249 0.5 0 0 0 
457 1 0.472884 0.927805 0.5 0 0 0 
471 1 0.472884 0.938916 0.5 0 0 0 
483 1 0.370384 0.944471 0.5 0 0 0 
498 1 0.370384 0.955582 0.5 0 0 0 
512 1 0.349884 0.961138 0.5 0 0 0 
484 1 0.411384 0.944471 0.5 0 0 0 
499 1 0.411384 0.955582 0.5 0 0 0 
513 1 0.390884 0.961138 0.5 0 0 0 
514 1 0.431884 0.961138 0.5 0 0 0 
485 1 0.452384 0.944471 0.5 0 0 0 
486 1 0.493384 0.944471 0.5 0 0 0 
500 1 0.452384 0.955582 0.5 0 0 0 
501 1 0.493384 0.955582 0.5 0 0 0 
515 1 0.472884 0.961138 0.5 0 0 0 
526 1 0.349884 0.972249 0.5 0 0 0 
541 1 0.370384 0.977805 0.5 0 0 0 
556 1 0.370384 0.988916 0.5 0 0 0 
570 1 0.349884 0.994471 0.5 0 0 0 
527 1 0.390884 0.972249 0.5 0 0 0 
528 1 0.431884 0.972249 0.5 0 0 0 
542 1 0.411384 0.977805 0.5 0 0 0 
557 1 0.411384 0.988916 0.5 0 0 0 
571 1 0.390884 0.994471 0.5 0 0 0 
572 1 0.431884 0.994471 0.5 0 0 0 
529 1 0.472884 0.972249 0.5 0 0 0 
543 1 0.452384 0.977805 0.5 0 0 0 
544 1 0.493384 0.977805 0.5 0 0 0 
558 1 0.452384 0.988916 0.5 0 0 0 
559 1 0.493384 0.988916 0.5 0 0 0 
573 1 0.472884 0.994471 0.5 0 0 0 
8 1 0.513884 0.00558241 0.5 0 0 0 
9 1 0.554884 0.00558241 0.5 0 0 0 
23 1 0.534384 0.011138 0.5 0 0 0 
38 1 0.534384 0.0222491 0.5 0 0 0 
10 1 0.595884 0.00558241 0.5 0 0 0 
24 1 0.575384 0.011138 0.5 0 0 0 
39 1 0.575384 0.0222491 0.5 0 0 0 
11 1 0.636884 0.00558241 0.5 0 0 0 
25 1 0.616384 0.011138 0.5 0 0 0 
26 1 0.657384 0.011138 0.5 0 0 0 
40 1 0.616384 0.0222491 0.5 0 0 0 
41 1 0.657384 0.0222491 0.5 0 0 0 
52 1 0.513884 0.0278046 0.5 0 0 0 
53 1 0.554884 0.0278046 0.5 0 0 0 
66 1 0.513884 0.0389157 0.5 0 0 0 
67 1 0.554884 0.0389157 0.5 0 0 0 
81 1 0.534384 0.0444713 0.5 0 0 0 
54 1 0.595884 0.0278046 0.5 0 0 0 
68 1 0.595884 0.0389157 0.5 0 0 0 
82 1 0.575384 0.0444713 0.5 0 0 0 
55 1 0.636884 0.0278046 0.5 0 0 0 
69 1 0.636884 0.0389157 0.5 0 0 0 
83 1 0.616384 0.0444713 0.5 0 0 0 
84 1 0.657384 0.0444713 0.5 0 0 0 
96 1 0.534384 0.0555824 0.5 0 0 0 
110 1 0.513884 0.061138 0.5 0 0 0 
111 1 0.554884 0.061138 0.5 0 0 0 
124 1 0.513884 0.0722491 0.5 0 0 0 
125 1 0.554884 0.0722491 0.5 0 0 0 
139 1 0.534384 0.0778046 0.5 0 0 0 
97 1 0.575384 0.0555824 0.5 0 0 0 
112 1 0.595884 0.061138 0.5 0 0 0 
126 1 0.595884 0.0722491 0.5 0 0 0 
140 1 0.575384 0.0778046 0.5 0 0 0 
98 1 0.616384 0.0555824 0.5 0 0 0 
99 1 0.657384 0.0555824 0.5 0 0 0 
113 1 0.636884 0.061138 0.5 0 0 0 
127 1 0.636884 0.0722491 0.5 0 0 0 
141 1 0.616384 0.0778046 0.5 0 0 0 
142 1 0.657384 0.0778046 0.5 0 0 0 
154 1 0.534384 0.0889157 0.5 0 0 0 
168 1 0.513884 0.0944713 0.5 0 0 0 
169 1 0.554884 0.0944713 0.5 0 0 0 
182 1 0.513884 0.105582 0.5 0 0 0 
183 1 0.554884 0.105582 0.5 0 0 0 
155 1 0.575384 0.0889157 0.5 0 0 0 
170 1 0.595884 0.0944713 0.5 0 0 0 
184 1 0.595884 0.105582 0.5 0 0 0 
156 1 0.616384 0.0889157 0.5 0 0 0 
157 1 0.657384 0.0889157 0.5 0 0 0 
171 1 0.636884 0.0944713 0.5 0 0 0 
185 1 0.636884 0.105582 0.5 0 0 0 
197 1 0.534384 0.111138 0.5 0 0 0 
212 1 0.534384 0.122249 0.5 0 0 0 
226 1 0.513884 0.127805 0.5 0 0 0 
227 1 0.554884 0.127805 0.5 0 0 0 
198 1 0.575384 0.111138 0.5 0 0 0 
213 1 0.575384 0.122249 0.5 0 0 0 
228 1 0.595884 0.127805 0.5 0 0 0 
199 1 0.616384 0.111138 0.5 0 0 0 
200 1 0.657384 0.111138 0.5 0 0 0 
214 1 0.616384 0.122249 0.5 0 0 0 
215 1 0.657384 0.122249 0.5 0 0 0 
229 1 0.636884 0.127805 0.5 0 0 0 
240 1 0.513884 0.138916 0.5 0 0 0 
241 1 0.554884 0.138916 0.5 0 0 0 
255 1 0.534384 0.144471 0.5 0 0 0 
270 1 0.534384 0.155582 0.5 0 0 0 
284 1 0.513884 0.161138 0.5 0 0 0 
285 1 0.554884 0.161138 0.5 0 0 0 
242 1 0.595884 0.138916 0.5 0 0 0 
256 1 0.575384 0.144471 0.5 0 0 0 
271 1 0.575384 0.155582 0.5 0 0 0 
286 1 0.595884 0.161138 0.5 0 0 0 
243 1 0.636884 0.138916 0.5 0 0 0 
257 1 0.616384 0.144471 0.5 0 0 0 
258 1 0.657384 0.144471 0.5 0 0 0 
272 1 0.616384 0.155582 0.5 0 0 0 
273 1 0.657384 0.155582 0.5 0 0 0 
287 1 0.636884 0.161138 0.5 0 0 0 
720 3 0.513884 0.172249 0.5 0 0 0 
721 3 0.554884 0.172249 0.5 0 0 0 
726 3 0.534384 0.177805 0.5 0 0 0 
731 3 0.534384 0.188916 0.5 0 0 0 
722 3 0.595884 0.172249 0.5 0 0 0 
727 3 0.575384 0.177805 0.5 0 0 0 
732 3 0.575384 0.188916 0.5 0 0 0 
605 2 0.636884 0.170056 0.5 -1.30583e-07 -1.23925 0 
610 2 0.612338 0.176708 0.5 -1.07319 -0.619607 0 
612 2 0.612338 0.190012 0.5 -1.07319 0.619607 0 
736 3 0.513884 0.194471 0.5 0 0 0 
737 3 0.554884 0.194471 0.5 0 0 0 
742 3 0.513884 0.205582 0.5 0 0 0 
743 3 0.554884 0.205582 0.5 0 0 0 
748 3 0.534384 0.211138 0.5 0 0 0 
738 3 0.595884 0.194471 0.5 0 0 0 
744 3 0.595884 0.205582 0.5 0 0 0 
749 3 0.575384 0.211138 0.5 0 0 0 
614 2 0.612338 0.210042 0.5 -1.07319 -0.619607 0 
753 3 0.534384 0.222249 0.5 0 0 0 
758 3 0.513884 0.227805 0.5 0 0 0 
759 3 0.554884 0.227805 0.5 0 0 0 
764 3 0.513884 0.238916 0.5 0 0 0 
765 3 0.554884 0.238916 0.5 0 0 0 
770 3 0.534384 0.244471 0.5 0 0 0 
754 3 0.575384 0.222249 0.5 0 0 0 
760 3 0.595884 0.227805 0.5 0 0 0 
766 3 0.595884 0.238916 0.5 0 0 0 
771 3 0.575384 0.244471 0.5 0 0 0 
616 2 0.612338 0.223345 0.5 -1.07319 0.619607 0 
618 2 0.612338 0.243375 0.5 -1.07319 -0.619607 0 
775 3 0.534384 0.255582 0.5 0 0 0 
780 3 0.513884 0.261138 0.5 0 0 0 
781 3 0.554884 0.261138 0.5 0 0 0 
786 3 0.513884 0.272249 0.5 0 0 0 
787 3 0.554884 0.272249 0.5 0 0 0 
776 3 0.575384 0.255582 0.5 0 0 0 
782 3 0.595884 0.261138 0.5 0 0 0 
788 3 0.595884 0.272249 0.5 0 0 0 
620 2 0.612338 0.256679 0.5 -1.07319 0.619607 0 
622 2 0.612338 0.276708 0.5 -1.07319 -0.619607 0 
792 3 0.534384 0.277805 0.5 0 0 0 
797 3 0.534384 0.288916 0.5 0 0 0 
802 3 0.513884 0.294471 0.5 0 0 0 
803 3 0.554884 0.294471 0.5 0 0 0 
793 3 0.575384 0.277805 0.5 0 0 0 
798 3 0.575384 0.288916 0.5 0 0 0 
804 3 0.595884 0.294471 0.5 0 0 0 
624 2 0.612338 0.290012 0.5 -1.07319 0.619607 0 
808 3 0.513884 0.305582 0.5 0 0 0 
809 3 0.554884 0.305582 0.5 0 0 0 
814 3 0.534384 0.311138 0.5 0 0 0 
819 3 0.534384 0.322249 0.5 0 0 0 
824 3 0.513884 0.327805 0.5 0 0 0 
825 3 0.554884 0.327805 0.5 0 0 0 
810 3 0.595884 0.305582 0.5 0 0 0 
815 3 0.575384 0.311138 0.5 0 0 0 
820 3 0.575384 0.322249 0.5 0 0 0 
826 3 0.595884 0.327805 0.5 0 0 0 
626 2 0.612338 0.310042 0.5 -1.07319 -0.619607 0 
628 2 0.612338 0.323345 0.5 -1.07319 0.619607 0 
830 3 0.513884 0.338916 0.5 0 0 0 
831 3 0.554884 0.338916 0.5 0 0 0 
836 3 0.534384 0.344471 0.5 0 0 0 
841 3 0.534384 0.355582 0.5 0 0 0 
832 3 0.595884 0.338916 0.5 0 0 0 
837 3 0.575384 0.344471 0.5 0 0 0 
842 3 0.575384 0.355582 0.5 0 0 0 
630 2 0.612338 0.343375 0.5 -1.07319 -0.619607 0 
632 2 0.612338 0.356679 0.5 -1.07321 0.61964 0 
846 3 0.513884 0.361138 0.5 0 0 0 
847 3 0.554884 0.361138 0.5 0 0 0 
852 3 0.513884 0.372249 0.5 0 0 0 
853 3 0.554884 0.372249 0.5 0 0 0 
858 3 0.534384 0.377805 0.5 0 0 0 
848 3 0.595884 0.361138 0.5 0 0 0 
854 3 0.595884 0.372249 0.5 0 0 0 
859 3 0.575384 0.377805 0.5 0 0 0 
634 2 0.612338 0.376708 0.5 -1.07319 -0.619607 0 
863 3 0.534384 0.388916 0.5 0 0 0 
868 3 0.513884 0.394471 0.5 0 0 0 
869 3 0.554884 0.394471 0.5 0 0 0 
874 3 0.513884 0.405582 0.5 0 0 0 
875 3 0.554884 0.405582 0.5 0 0 0 
880 3 0.534384 0.411138 0.5 0 0 0 
864 3 0.575384 0.388916 0.5 0 0 0 
870 3 0.595884 0.394471 0.5 0 0 0 
876 3 0.595884 0.405582 0.5 0 0 0 
881 3 0.575384 0.411138 0.5 0 0 0 
636 2 0.612338 0.390012 0.5 -1.07319 0.619607 0 
638 2 0.612338 0.410042 0.5 -1.07319 -0.619607 0 
885 3 0.534384 0.422249 0.5 0 0 0 
890 3 0.513884 0.427805 0.5 0 0 0 
891 3 0.554884 0.427805 0.5 0 0 0 
896 3 0.513884 0.438916 0.5 0 0 0 
897 3 0.554884 0.438916 0.5 0 0 0 
886 3 0.575384 0.422249 0.5 0 0 0 
892 3 0.595884 0.427805 0.5 0 0 0 
898 3 0.595884 0.438916 0.5 0 0 0 
640 2 0.612338 0.423345 0.5 -1.07318 0.619615 0 
642 2 0.612338 0.443375 0.5 -1.07318 -0.619615 0 
902 3 0.534384 0.444471 0.5 0 0 0 
907 3 0.534384 0.455582 0.5 0 0 0 
912 3 0.513884 0.461138 0.5 0 0 0 
913 3 0.554884 0.461138 0.5 0 0 0 
903 3 0.575384 0.444471 0.5 0 0 0 
908 3 0.575384 0.455582 0.5 0 0 0 
914 3 0.595884 0.461138 0.5 0 0 0 
644 2 0.612338 0.456679 0.5 -1.07319 0.619607 0 
918 3 0.513884 0.472249 0.5 0 0 0 
919 3 0.554884 0.472249 0.5 0 0 0 
924 3 0.534384 0.477805 0.5 0 0 0 
929 3 0.534384 0.488916 0.5 0 0 0 
934 3 0.513884 0.494471 0.5 0 0 0 
935 3 0.554884 0.494471 0.5 0 0 0 
920 3 0.595884 0.472249 0.5 0 0 0 
925 3 0.575384 0.477805 0.5 0 0 0 
930 3 0.575384 0.488916 0.5 0 0 0 
936 3 0.595884 0.494471 0.5 0 0 0 
646 2 0.612338 0.476708 0.5 -1.07319 -0.619607 0 
648 2 0.612338 0.490012 0.5 -1.07318 0.619615 0 
940 3 0.513884 0.505582 0.5 0 0 0 