# 2 1 11 0 10       1.0000000 4 2 0 w strain (not sorted)
1156 atoms
3 atom types 580 136 440
    0.000000   10.000000 xlo xhi
    0.000000   60.000000 ylo yhi
    0.000000  127.825302 zlo zhi
 
 Atoms
 
       1  1    5.000000   12.383040    1.423718
       2  1    5.000000   12.383040    2.843998
       3  1    5.000000   13.613040    0.713573
       4  1    5.000000   16.073040    0.713573
       5  1    5.000000   14.843040    1.423718
       6  1    5.000000   14.843040    2.843998
       7  1    5.000000   18.533039    0.713573
       8  1    5.000000   17.303040    1.423718
       9  1    5.000000   19.763041    1.423718
      10  1    5.000000   17.303040    2.843998
      11  1    5.000000   19.763041    2.843998
      12  1    5.000000   12.383040    5.684557
      13  1    5.000000   13.613040    3.554132
      14  1    5.000000   16.073040    3.554132
      15  1    5.000000   13.613040    4.974411
      16  1    5.000000   16.073040    4.974411
      17  1    5.000000   14.843040    5.684557
      18  1    5.000000   18.533039    3.554132
      19  1    5.000000   18.533039    4.974411
      20  1    5.000000   17.303040    5.684557
      21  1    5.000000   19.763041    5.684557
      22  1    5.000000   12.383040    7.104837
      23  1    5.000000   12.383040    9.945396
      24  1    5.000000   14.843040    7.104837
      25  1    5.000000   13.613040    7.814983
      26  1    5.000000   16.073040    7.814983
      27  1    5.000000   13.613040    9.235263
      28  1    5.000000   16.073040    9.235263
      29  1    5.000000   14.843040    9.945396
      30  1    5.000000   17.303040    7.104837
      31  1    5.000000   19.763041    7.104837
      32  1    5.000000   18.533039    7.814983
      33  1    5.000000   18.533039    9.235263
      34  1    5.000000   17.303040    9.945396
      35  1    5.000000   19.763041    9.945396
      36  1    5.000000   12.383040   11.365676
      37  1    5.000000   14.843040   11.365676
      38  1    5.000000   13.613040   12.075822
      39  1    5.000000   16.073040   12.075822
      40  1    5.000000   13.613040   13.496051
      41  1    5.000000   16.073040   13.496051
      42  1    5.000000   17.303040   11.365676
      43  1    5.000000   19.763041   11.365676
      44  1    5.000000   18.533039   12.075822
      45  1    5.000000   18.533039   13.496051
      46  1    5.000000   12.383040   14.206248
      47  1    5.000000   12.383040   15.626515
      48  1    5.000000   14.843040   14.206248
      49  1    5.000000   14.843040   15.626515
      50  1    5.000000   13.613040   16.336712
      51  1    5.000000   16.073040   16.336712
      52  1    5.000000   17.303040   14.206248
      53  1    5.000000   19.763041   14.206248
      54  1    5.000000   17.303040   15.626515
      55  1    5.000000   19.763041   15.626515
      56  1    5.000000   18.533039   16.336712
      57  1    5.000000   12.383040   18.467051
      58  1    5.000000   12.383040   19.887316
      59  1    5.000000   13.613040   17.756979
      60  1    5.000000   16.073040   17.756979
      61  1    5.000000   14.843040   18.467051
      62  1    5.000000   14.843040   19.887316
      63  1    5.000000   13.613040   20.597513
      64  1    5.000000   16.073040   20.597513
      65  1    5.000000   18.533039   17.756979
      66  1    5.000000   17.303040   18.467051
      67  1    5.000000   19.763041   18.467051
      68  1    5.000000   17.303040   19.887316
      69  1    5.000000   19.763041   19.887316
      70  1    5.000000   18.533039   20.597513
      71  1    5.000000   12.383040  107.944756
      72  1    5.000000   12.383040  109.365028
      73  1    5.000000   13.613040  107.234695
      74  1    5.000000   16.073040  107.234695
      75  1    5.000000   14.843040  107.944756
      76  1    5.000000   14.843040  109.365028
      77  1    5.000000   18.533039  107.234695
      78  1    5.000000   17.303040  107.944756
      79  1    5.000000   19.763041  107.944756
      80  1    5.000000   17.303040  109.365028
      81  1    5.000000   19.763041  109.365028
      82  1    5.000000   12.383040  112.205688
      83  1    5.000000   13.613040  110.075226
      84  1    5.000000   16.073040  110.075226
      85  1    5.000000   13.613040  111.495491
      86  1    5.000000   16.073040  111.495491
      87  1    5.000000   14.843040  112.205688
      88  1    5.000000   18.533039  110.075226
      89  1    5.000000   18.533039  111.495491
      90  1    5.000000   17.303040  112.205688
      91  1    5.000000   19.763041  112.205688
      92  1    5.000000   12.383040  113.625961
      93  1    5.000000   12.383040  116.466492
      94  1    5.000000   14.843040  113.625961
      95  1    5.000000   13.613040  114.336021
      96  1    5.000000   16.073040  114.336021
      97  1    5.000000   13.613040  115.756294
      98  1    5.000000   16.073040  115.756294
      99  1    5.000000   14.843040  116.466492
     100  1    5.000000   17.303040  113.625961
     101  1    5.000000   19.763041  113.625961
     102  1    5.000000   18.533039  114.336021
     103  1    5.000000   18.533039  115.756294
     104  1    5.000000   17.303040  116.466492
     105  1    5.000000   19.763041  116.466492
     106  1    5.000000   12.383040  117.886757
     107  1    5.000000   14.843040  117.886757
     108  1    5.000000   13.613040  118.596954
     109  1    5.000000   16.073040  118.596954
     110  1    5.000000   13.613040  120.017227
     111  1    5.000000   16.073040  120.017227
     112  1    5.000000   17.303040  117.886757
     113  1    5.000000   19.763041  117.886757
     114  1    5.000000   18.533039  118.596954
     115  1    5.000000   18.533039  120.017227
     116  1    5.000000   12.383040  120.727295
     117  1    5.000000   12.383040  122.147560
     118  1    5.000000   14.843040  120.727295
     119  1    5.000000   14.843040  122.147560
     120  1    5.000000   13.613040  122.857758
     121  1    5.000000   16.073040  122.857758
     122  1    5.000000   17.303040  120.727295
     123  1    5.000000   19.763041  120.727295
     124  1    5.000000   17.303040  122.147560
     125  1    5.000000   19.763041  122.147560
     126  1    5.000000   18.533039  122.857758
     127  1    5.000000   12.383040  124.988220
     128  1    5.000000   12.383040  126.408485
     129  1    5.000000   13.613040  124.278015
     130  1    5.000000   16.073040  124.278015
     131  1    5.000000   14.843040  124.988220
     132  1    5.000000   14.843040  126.408485
     133  1    5.000000   13.613040  127.118561
     134  1    5.000000   16.073040  127.118561
     135  1    5.000000   18.533039  124.278015
     136  1    5.000000   17.303040  124.988220
     137  1    5.000000   19.763041  124.988220
     138  1    5.000000   17.303040  126.408485
     139  1    5.000000   19.763041  126.408485
     140  1    5.000000   18.533039  127.118561
     141  1    5.000000   20.993040    0.713573
     142  1    5.000000   22.223040    1.423718
     143  1    5.000000   22.223040    2.843998
     144  1    5.000000   23.453041    0.713573
     145  1    5.000000   25.913040    0.713573
     146  1    5.000000   24.683039    1.423718
     147  1    5.000000   24.683039    2.843998
     148  1    5.000000   28.373039    0.713573
     149  1    5.000000   27.143040    1.423718
     150  1    5.000000   29.603041    1.423718
     151  1    5.000000   27.143040    2.843998
     152  1    5.000000   29.603041    2.843998
     153  1    5.000000   20.993040    3.554132
     154  1    5.000000   20.993040    4.974411
     155  1    5.000000   22.223040    5.684557
     156  1    5.000000   23.453041    3.554132
     157  1    5.000000   25.913040    3.554132
     158  1    5.000000   23.453041    4.974411
     159  1    5.000000   25.913040    4.974411
     160  1    5.000000   24.683039    5.684557
     161  1    5.000000   28.373039    3.554132
     162  1    5.000000   28.373039    4.974411
     163  1    5.000000   27.143040    5.684557
     164  1    5.000000   29.603041    5.684557
     165  1    5.000000   22.223040    7.104837
     166  1    5.000000   20.993040    7.814983
     167  1    5.000000   20.993040    9.235263
     168  1    5.000000   22.223040    9.945396
     169  1    5.000000   24.683039    7.104837
     170  1    5.000000   23.453041    7.814983
     171  1    5.000000   25.913040    7.814983
     172  1    5.000000   23.453041    9.235263
     173  1    5.000000   25.913040    9.235263
     174  1    5.000000   24.683039    9.945396
     175  1    5.000000   27.143040    7.104837
     176  1    5.000000   29.603041    7.104837
     177  1    5.000000   28.373039    7.814983
     178  1    5.000000   28.373039    9.235263
     179  1    5.000000   27.143040    9.945396
     180  1    5.000000   29.603041    9.945396
     181  1    5.000000   22.223040   11.365676
     182  1    5.000000   20.993040   12.075822
     183  1    5.000000   20.993040   13.496051
     184  1    5.000000   24.683039   11.365676
     185  1    5.000000   23.453041   12.075822
     186  1    5.000000   25.913040   12.075822
     187  1    5.000000   23.453041   13.496051
     188  1    5.000000   25.913040   13.496051
     189  1    5.000000   27.143040   11.365676
     190  1    5.000000   29.603041   11.365676
     191  1    5.000000   28.373039   12.075822
     192  1    5.000000   28.373039   13.496051
     193  1    5.000000   22.223040   14.206248
     194  1    5.000000   22.223040   15.626515
     195  1    5.000000   20.993040   16.336712
     196  1    5.000000   24.683039   14.206248
     197  1    5.000000   24.683039   15.626515
     198  1    5.000000   23.453041   16.336712
     199  1    5.000000   25.913040   16.336712
     200  1    5.000000   27.143040   14.206248
     201  1    5.000000   29.603041   14.206248
     202  1    5.000000   27.143040   15.626515
     203  1    5.000000   29.603041   15.626515
     204  1    5.000000   28.373039   16.336712
     205  1    5.000000   20.993040   17.756979
     206  1    5.000000   22.223040   18.467051
     207  1    5.000000   22.223040   19.887316
     208  1    5.000000   20.993040   20.597513
     209  1    5.000000   23.453041   17.756979
     210  1    5.000000   25.913040   17.756979
     211  1    5.000000   24.683039   18.467051
     212  1    5.000000   24.683039   19.887316
     213  1    5.000000   23.453041   20.597513
     214  1    5.000000   25.913040   20.597513
     215  1    5.000000   28.373039   17.756979
     216  1    5.000000   27.143040   18.467051
     217  1    5.000000   29.603041   18.467051
     218  1    5.000000   27.143040   19.887316
     219  1    5.000000   29.603041   19.887316
     220  1    5.000000   28.373039   20.597513
     221  1    5.000000   20.993040  107.234695
     222  1    5.000000   22.223040  107.944756
     223  1    5.000000   22.223040  109.365028
     224  1    5.000000   23.453041  107.234695
     225  1    5.000000   25.913040  107.234695
     226  1    5.000000   24.683039  107.944756
     227  1    5.000000   24.683039  109.365028
     228  1    5.000000   28.373039  107.234695
     229  1    5.000000   27.143040  107.944756
     230  1    5.000000   29.603041  107.944756
     231  1    5.000000   27.143040  109.365028
     232  1    5.000000   29.603041  109.365028
     233  1    5.000000   20.993040  110.075226
     234  1    5.000000   20.993040  111.495491
     235  1    5.000000   22.223040  112.205688
     236  1    5.000000   23.453041  110.075226
     237  1    5.000000   25.913040  110.075226
     238  1    5.000000   23.453041  111.495491
     239  1    5.000000   25.913040  111.495491
     240  1    5.000000   24.683039  112.205688
     241  1    5.000000   28.373039  110.075226
     242  1    5.000000   28.373039  111.495491
     243  1    5.000000   27.143040  112.205688
     244  1    5.000000   29.603041  112.205688
     245  1    5.000000   22.223040  113.625961
     246  1    5.000000   20.993040  114.336021
     247  1    5.000000   20.993040  115.756294
     248  1    5.000000   22.223040  116.466492
     249  1    5.000000   24.683039  113.625961
     250  1    5.000000   23.453041  114.336021
     251  1    5.000000   25.913040  114.336021
     252  1    5.000000   23.453041  115.756294
     253  1    5.000000   25.913040  115.756294
     254  1    5.000000   24.683039  116.466492
     255  1    5.000000   27.143040  113.625961
     256  1    5.000000   29.603041  113.625961
     257  1    5.000000   28.373039  114.336021
     258  1    5.000000   28.373039  115.756294
     259  1    5.000000   27.143040  116.466492
     260  1    5.000000   29.603041  116.466492
     261  1    5.000000   22.223040  117.886757
     262  1    5.000000   20.993040  118.596954
     263  1    5.000000   20.993040  120.017227
     264  1    5.000000   24.683039  117.886757
     265  1    5.000000   23.453041  118.596954
     266  1    5.000000   25.913040  118.596954
     267  1    5.000000   23.453041  120.017227
     268  1    5.000000   25.913040  120.017227
     269  1    5.000000   27.143040  117.886757
     270  1    5.000000   29.603041  117.886757
     271  1    5.000000   28.373039  118.596954
     272  1    5.000000   28.373039  120.017227
     273  1    5.000000   22.223040  120.727295
     274  1    5.000000   22.223040  122.147560
     275  1    5.000000   20.993040  122.857758
     276  1    5.000000   24.683039  120.727295
     277  1    5.000000   24.683039  122.147560
     278  1    5.000000   23.453041  122.857758
     279  1    5.000000   25.913040  122.857758
     280  1    5.000000   27.143040  120.727295
     281  1    5.000000   29.603041  120.727295
     282  1    5.000000   27.143040  122.147560
     283  1    5.000000   29.603041  122.147560
     284  1    5.000000   28.373039  122.857758
     285  1    5.000000   20.993040  124.278015
     286  1    5.000000   22.223040  124.988220
     287  1    5.000000   22.223040  126.408485
     288  1    5.000000   20.993040  127.118561
     289  1    5.000000   23.453041  124.278015
     290  1    5.000000   25.913040  124.278015
     291  1    5.000000   24.683039  124.988220
     292  1    5.000000   24.683039  126.408485
     293  1    5.000000   23.453041  127.118561
     294  1    5.000000   25.913040  127.118561
     295  1    5.000000   28.373039  124.278015
     296  1    5.000000   27.143040  124.988220
     297  1    5.000000   29.603041  124.988220
     298  1    5.000000   27.143040  126.408485
     299  1    5.000000   29.603041  126.408485
     300  1    5.000000   28.373039  127.118561
     301  1    5.000000   30.833040    0.713573
     302  1    5.000000   33.293041    0.713573
     303  1    5.000000   32.063042    1.423718
     304  1    5.000000   32.063042    2.843998
     305  1    5.000000   35.753040    0.713573
     306  1    5.000000   34.523041    1.423718
     307  1    5.000000   34.523041    2.843998
     308  1    5.000000   38.213039    0.713573
     309  1    5.000000   36.983040    1.423718
     310  1    5.000000   39.443039    1.423718
     311  1    5.000000   36.983040    2.843998
     312  1    5.000000   39.443039    2.843998
     313  1    5.000000   30.833040    3.554132
     314  1    5.000000   33.293041    3.554132
     315  1    5.000000   30.833040    4.974411
     316  1    5.000000   33.293041    4.974411
     317  1    5.000000   32.063042    5.684557
     318  1    5.000000   35.753040    3.554132
     319  1    5.000000   35.753040    4.974411
     320  1    5.000000   34.523041    5.684557
     321  1    5.000000   38.213039    3.554132
     322  1    5.000000   38.213039    4.974411
     323  1    5.000000   36.983040    5.684557
     324  1    5.000000   39.443039    5.684557
     325  1    5.000000   32.063042    7.104837
     326  1    5.000000   30.833040    7.814983
     327  1    5.000000   33.293041    7.814983
     328  1    5.000000   30.833040    9.235263
     329  1    5.000000   33.293041    9.235263
     330  1    5.000000   32.063042    9.945396
     331  1    5.000000   34.523041    7.104837
     332  1    5.000000   35.753040    7.814983
     333  1    5.000000   35.753040    9.235263
     334  1    5.000000   34.523041    9.945396
     335  1    5.000000   36.983040    7.104837
     336  1    5.000000   39.443039    7.104837
     337  1    5.000000   38.213039    7.814983
     338  1    5.000000   38.213039    9.235263
     339  1    5.000000   36.983040    9.945396
     340  1    5.000000   39.443039    9.945396
     341  1    5.000000   32.063042   11.365676
     342  1    5.000000   30.833040   12.075822
     343  1    5.000000   33.293041   12.075822
     344  1    5.000000   30.833040   13.496051
     345  1    5.000000   33.293041   13.496051
     346  1    5.000000   34.523041   11.365676
     347  1    5.000000   35.753040   12.075822
     348  1    5.000000   35.753040   13.496051
     349  1    5.000000   36.983040   11.365676
     350  1    5.000000   39.443039   11.365676
     351  1    5.000000   38.213039   12.075822
     352  1    5.000000   38.213039   13.496051
     353  1    5.000000   32.063042   14.206248
     354  1    5.000000   32.063042   15.626515
     355  1    5.000000   30.833040   16.336712
     356  1    5.000000   33.293041   16.336712
     357  1    5.000000   34.523041   14.206248
     358  1    5.000000   34.523041   15.626515
     359  1    5.000000   35.753040   16.336712
     360  1    5.000000   36.983040   14.206248
     361  1    5.000000   39.443039   14.206248
     362  1    5.000000   36.983040   15.626515
     363  1    5.000000   39.443039   15.626515
     364  1    5.000000   38.213039   16.336712
     365  1    5.000000   30.833040   17.756979
     366  1    5.000000   33.293041   17.756979
     367  1    5.000000   32.063042   18.467051
     368  1    5.000000   32.063042   19.887316
     369  1    5.000000   30.833040   20.597513
     370  1    5.000000   33.293041   20.597513
     371  1    5.000000   35.753040   17.756979
     372  1    5.000000   34.523041   18.467051
     373  1    5.000000   34.523041   19.887316
     374  1    5.000000   35.753040   20.597513
     375  1    5.000000   38.213039   17.756979
     376  1    5.000000   36.983040   18.467051
     377  1    5.000000   39.443039   18.467051
     378  1    5.000000   36.983040   19.887316
     379  1    5.000000   39.443039   19.887316
     380  1    5.000000   38.213039   20.597513
     381  1    5.000000   30.833040  107.234695
     382  1    5.000000   33.293041  107.234695
     383  1    5.000000   32.063042  107.944756
     384  1    5.000000   32.063042  109.365028
     385  1    5.000000   35.753040  107.234695
     386  1    5.000000   34.523041  107.944756
     387  1    5.000000   34.523041  109.365028
     388  1    5.000000   38.213039  107.234695
     389  1    5.000000   36.983040  107.944756
     390  1    5.000000   39.443039  107.944756
     391  1    5.000000   36.983040  109.365028
     392  1    5.000000   39.443039  109.365028
     393  1    5.000000   30.833040  110.075226
     394  1    5.000000   33.293041  110.075226
     395  1    5.000000   30.833040  111.495491
     396  1    5.000000   33.293041  111.495491
     397  1    5.000000   32.063042  112.205688
     398  1    5.000000   35.753040  110.075226
     399  1    5.000000   35.753040  111.495491
     400  1    5.000000   34.523041  112.205688
     401  1    5.000000   38.213039  110.075226
     402  1    5.000000   38.213039  111.495491
     403  1    5.000000   36.983040  112.205688
     404  1    5.000000   39.443039  112.205688
     405  1    5.000000   32.063042  113.625961
     406  1    5.000000   30.833040  114.336021
     407  1    5.000000   33.293041  114.336021
     408  1    5.000000   30.833040  115.756294
     409  1    5.000000   33.293041  115.756294
     410  1    5.000000   32.063042  116.466492
     411  1    5.000000   34.523041  113.625961
     412  1    5.000000   35.753040  114.336021
     413  1    5.000000   35.753040  115.756294
     414  1    5.000000   34.523041  116.466492
     415  1    5.000000   36.983040  113.625961
     416  1    5.000000   39.443039  113.625961
     417  1    5.000000   38.213039  114.336021
     418  1    5.000000   38.213039  115.756294
     419  1    5.000000   36.983040  116.466492
     420  1    5.000000   39.443039  116.466492
     421  1    5.000000   32.063042  117.886757
     422  1    5.000000   30.833040  118.596954
     423  1    5.000000   33.293041  118.596954
     424  1    5.000000   30.833040  120.017227
     425  1    5.000000   33.293041  120.017227
     426  1    5.000000   34.523041  117.886757
     427  1    5.000000   35.753040  118.596954
     428  1    5.000000   35.753040  120.017227
     429  1    5.000000   36.983040  117.886757
     430  1    5.000000   39.443039  117.886757
     431  1    5.000000   38.213039  118.596954
     432  1    5.000000   38.213039  120.017227
     433  1    5.000000   32.063042  120.727295
     434  1    5.000000   32.063042  122.147560
     435  1    5.000000   30.833040  122.857758
     436  1    5.000000   33.293041  122.857758
     437  1    5.000000   34.523041  120.727295
     438  1    5.000000   34.523041  122.147560
     439  1    5.000000   35.753040  122.857758
     440  1    5.000000   36.983040  120.727295
     441  1    5.000000   39.443039  120.727295
     442  1    5.000000   36.983040  122.147560
     443  1    5.000000   39.443039  122.147560
     444  1    5.000000   38.213039  122.857758
     445  1    5.000000   30.833040  124.278015
     446  1    5.000000   33.293041  124.278015
     447  1    5.000000   32.063042  124.988220
     448  1    5.000000   32.063042  126.408485
     449  1    5.000000   30.833040  127.118561
     450  1    5.000000   33.293041  127.118561
     451  1    5.000000   35.753040  124.278015
     452  1    5.000000   34.523041  124.988220
     453  1    5.000000   34.523041  126.408485
     454  1    5.000000   35.753040  127.118561
     455  1    5.000000   38.213039  124.278015
     456  1    5.000000   36.983040  124.988220
     457  1    5.000000   39.443039  124.988220
     458  1    5.000000   36.983040  126.408485
     459  1    5.000000   39.443039  126.408485
     460  1    5.000000   38.213039  127.118561
     461  1    5.000000   40.673038    0.713573
     462  1    5.000000   43.133041    0.713573
     463  1    5.000000   41.903038    1.423718
     464  1    5.000000   41.903038    2.843998
     465  1    5.000000   45.593040    0.713573
     466  1    5.000000   44.363041    1.423718
     467  1    5.000000   44.363041    2.843998
     468  1    5.000000   46.823040    1.423718
     469  1    5.000000   46.823040    2.843998
     470  1    5.000000   40.673038    3.554132
     471  1    5.000000   43.133041    3.554132
     472  1    5.000000   40.673038    4.974411
     473  1    5.000000   43.133041    4.974411
     474  1    5.000000   41.903038    5.684557
     475  1    5.000000   45.593040    3.554132
     476  1    5.000000   45.593040    4.974411
     477  1    5.000000   44.363041    5.684557
     478  1    5.000000   46.823040    5.684557
     479  1    5.000000   41.903038    7.104837
     480  1    5.000000   40.673038    7.814983
     481  1    5.000000   43.133041    7.814983
     482  1    5.000000   40.673038    9.235263
     483  1    5.000000   43.133041    9.235263
     484  1    5.000000   41.903038    9.945396
     485  1    5.000000   44.363041    7.104837
     486  1    5.000000   45.593040    7.814983
     487  1    5.000000   45.593040    9.235263
     488  1    5.000000   44.363041    9.945396
     489  1    5.000000   46.823040    7.104837
     490  1    5.000000   46.823040    9.945396
     491  1    5.000000   41.903038   11.365676
     492  1    5.000000   40.673038   12.075822
     493  1    5.000000   43.133041   12.075822
     494  1    5.000000   40.673038   13.496051
     495  1    5.000000   43.133041   13.496051
     496  1    5.000000   44.363041   11.365676
     497  1    5.000000   45.593040   12.075822
     498  1    5.000000   45.593040   13.496051
     499  1    5.000000   46.823040   11.365676
     500  1    5.000000   41.903038   14.206248
     501  1    5.000000   41.903038   15.626515
     502  1    5.000000   40.673038   16.336712
     503  1    5.000000   43.133041   16.336712
     504  1    5.000000   44.363041   14.206248
     505  1    5.000000   44.363041   15.626515
     506  1    5.000000   45.593040   16.336712
     507  1    5.000000   46.823040   14.206248
     508  1    5.000000   46.823040   15.626515
     509  1    5.000000   40.673038   17.756979
     510  1    5.000000   43.133041   17.756979
     511  1    5.000000   41.903038   18.467051
     512  1    5.000000   41.903038   19.887316
     513  1    5.000000   40.673038   20.597513
     514  1    5.000000   43.133041   20.597513
     515  1    5.000000   45.593040   17.756979
     516  1    5.000000   44.363041   18.467051
     517  1    5.000000   44.363041   19.887316
     518  1    5.000000   45.593040   20.597513
     519  1    5.000000   46.823040   18.467051
     520  1    5.000000   46.823040   19.887316
     521  1    5.000000   40.673038  107.234695
     522  1    5.000000   43.133041  107.234695
     523  1    5.000000   41.903038  107.944756
     524  1    5.000000   41.903038  109.365028
     525  1    5.000000   45.593040  107.234695
     526  1    5.000000   44.363041  107.944756
     527  1    5.000000   44.363041  109.365028
     528  1    5.000000   46.823040  107.944756
     529  1    5.000000   46.823040  109.365028
     530  1    5.000000   40.673038  110.075226
     531  1    5.000000   43.133041  110.075226
     532  1    5.000000   40.673038  111.495491
     533  1    5.000000   43.133041  111.495491
     534  1    5.000000   41.903038  112.205688
     535  1    5.000000   45.593040  110.075226
     536  1    5.000000   45.593040  111.495491
     537  1    5.000000   44.363041  112.205688
     538  1    5.000000   46.823040  112.205688
     539  1    5.000000   41.903038  113.625961
     540  1    5.000000   40.673038  114.336021
     541  1    5.000000   43.133041  114.336021
     542  1    5.000000   40.673038  115.756294
     543  1    5.000000   43.133041  115.756294
     544  1    5.000000   41.903038  116.466492
     545  1    5.000000   44.363041  113.625961
     546  1    5.000000   45.593040  114.336021
     547  1    5.000000   45.593040  115.756294
     548  1    5.000000   44.363041  116.466492
     549  1    5.000000   46.823040  113.625961
     550  1    5.000000   46.823040  116.466492
     551  1    5.000000   41.903038  117.886757
     552  1    5.000000   40.673038  118.596954
     553  1    5.000000   43.133041  118.596954
     554  1    5.000000   40.673038  120.017227
     555  1    5.000000   43.133041  120.017227
     556  1    5.000000   44.363041  117.886757
     557  1    5.000000   45.593040  118.596954
     558  1    5.000000   45.593040  120.017227
     559  1    5.000000   46.823040  117.886757
     560  1    5.000000   41.903038  120.727295
     561  1    5.000000   41.903038  122.147560
     562  1    5.000000   40.673038  122.857758
     563  1    5.000000   43.133041  122.857758
     564  1    5.000000   44.363041  120.727295
     565  1    5.000000   44.363041  122.147560
     566  1    5.000000   45.593040  122.857758
     567  1    5.000000   46.823040  120.727295
     568  1    5.000000   46.823040  122.147560
     569  1    5.000000   40.673038  124.278015
     570  1    5.000000   43.133041  124.278015
     571  1    5.000000   41.903038  124.988220
     572  1    5.000000   41.903038  126.408485
     573  1    5.000000   40.673038  127.118561
     574  1    5.000000   43.133041  127.118561
     575  1    5.000000   45.593040  124.278015
     576  1    5.000000   44.363041  124.988220
     577  1    5.000000   44.363041  126.408485
     578  1    5.000000   45.593040  127.118561
     579  1    5.000000   46.823040  124.988220
     580  1    5.000000   46.823040  126.408485
     581  2    5.000000   11.438940    0.878652
     582  2    5.000000   11.438940    3.389058
     583  2    5.000000   11.438940    5.139497
     584  2    5.000000   11.438940    7.649897
     585  2    5.000000   11.438940    9.400337
     586  2    5.000000   11.438940   11.910736
     587  2    5.000000   11.438940   13.661201
     588  2    5.000000   11.438940   16.171562
     589  2    5.000000   11.438940   17.922001
     590  2    5.000000   11.438940   20.432491
     591  2    5.000000   13.613040   21.687609
     592  2    5.000000   16.073040   21.687609
     593  2    5.000000   18.533039   21.687609
     594  2    5.000000   13.613040  106.144470
     595  2    5.000000   16.073040  106.144470
     596  2    5.000000   18.533039  106.144470
     597  2    5.000000   11.438940  107.399712
     598  2    5.000000   11.438940  109.910072
     599  2    5.000000   11.438940  111.660515
     600  2    5.000000   11.438940  114.171005
     601  2    5.000000   11.438940  115.921440
     602  2    5.000000   11.438940  118.431808
     603  2    5.000000   11.438940  120.182243
     604  2    5.000000   11.438940  122.692604
     605  2    5.000000   11.438940  124.443047
     606  2    5.000000   11.438940  126.953529
     607  2    5.000000   20.993040   21.687609
     608  2    5.000000   22.508942   22.562828
     609  2    5.000000   22.508942   24.313269
     610  2    5.000000   22.508942   26.823757
     611  2    5.000000   22.508942   28.574196
     612  2    5.000000   22.508942   31.084558
     613  2    5.000000   22.508942   32.834995
     614  2    5.000000   22.508942   35.345360
     615  2    5.000000   22.508942   37.095798
     616  2    5.000000   22.508942   39.606285
     617  2    5.000000   22.508942   41.356598
     618  2    5.000000   22.508942   43.867088
     619  2    5.000000   22.508942   45.617527
     620  2    5.000000   22.508942   48.127888