ITEM: TIMESTEP
0
ITEM: NUMBER OF ATOMS
62
ITEM: BOX BOUNDS pp pp pp
0.0000000000000000e+00 6.0000000000000000e+01
0.0000000000000000e+00 4.2607999000000003e+00
0.0000000000000000e+00 1.0000000000000000e+01
ITEM: ATOMS id type xs ys zs fx fy fz 
15 1 0.206384 0.334142 0.5 0 0 0 
30 1 0.206384 0.667479 0.5 0 0 0 
59 2 0.189929 0.200365 0.5 1.07324 0.619631 0 
61 2 0.189929 0.801257 0.5 1.07324 -0.619631 0 
1 1 0.226884 0.167474 0.5 0 0 0 
2 1 0.267884 0.167474 0.5 0 0 0 
16 1 0.247384 0.334142 0.5 0 0 0 
31 1 0.247384 0.667479 0.5 0 0 0 
45 1 0.226884 0.834147 0.5 0 0 0 
46 1 0.267884 0.834147 0.5 0 0 0 
3 1 0.308884 0.167474 0.5 0 0 0 
17 1 0.288384 0.334142 0.5 0 0 0 
18 1 0.329384 0.334142 0.5 0 0 0 
32 1 0.288384 0.667479 0.5 0 0 0 
33 1 0.329384 0.667479 0.5 0 0 0 
47 1 0.308884 0.834147 0.5 0 0 0 
4 1 0.349884 0.167474 0.5 0 0 0 
19 1 0.370384 0.334142 0.5 0 0 0 
34 1 0.370384 0.667479 0.5 0 0 0 
48 1 0.349884 0.834147 0.5 0 0 0 
5 1 0.390884 0.167474 0.5 0 0 0 
6 1 0.431884 0.167474 0.5 0 0 0 
20 1 0.411384 0.334142 0.5 0 0 0 
35 1 0.411384 0.667479 0.5 0 0 0 
49 1 0.390884 0.834147 0.5 0 0 0 
50 1 0.431884 0.834147 0.5 0 0 0 
7 1 0.472884 0.167474 0.5 0 0 0 
21 1 0.452384 0.334142 0.5 0 0 0 
22 1 0.493384 0.334142 0.5 0 0 0 
36 1 0.452384 0.667479 0.5 0 0 0 
37 1 0.493384 0.667479 0.5 0 0 0 
51 1 0.472884 0.834147 0.5 0 0 0 
8 1 0.513884 0.167474 0.5 0 0 0 
9 1 0.554884 0.167474 0.5 0 0 0 
23 1 0.534384 0.334142 0.5 0 0 0 
38 1 0.534384 0.667479 0.5 0 0 0 
52 1 0.513884 0.834147 0.5 0 0 0 
53 1 0.554884 0.834147 0.5 0 0 0 
10 1 0.595884 0.167474 0.5 0 0 0 
24 1 0.575384 0.334142 0.5 0 0 0 
39 1 0.575384 0.667479 0.5 0 0 0 
54 1 0.595884 0.834147 0.5 0 0 0 
11 1 0.636884 0.167474 0.5 0 0 0 
25 1 0.616384 0.334142 0.5 0 0 0 
26 1 0.657384 0.334142 0.5 0 0 0 
40 1 0.616384 0.667479 0.5 0 0 0 
41 1 0.657384 0.667479 0.5 0 0 0 
55 1 0.636884 0.834147 0.5 0 0 0 
12 1 0.677884 0.167474 0.5 0 0 0 
13 1 0.718884 0.167474 0.5 0 0 0 
27 1 0.698384 0.334142 0.5 0 0 0 
42 1 0.698384 0.667479 0.5 0 0 0 
56 1 0.677884 0.834147 0.5 0 0 0 
57 1 0.718884 0.834147 0.5 0 0 0 
14 1 0.759884 0.167474 0.5 0 0 0 
28 1 0.739384 0.334142 0.5 0 0 0 
43 1 0.739384 0.667479 0.5 0 0 0 
58 1 0.759884 0.834147 0.5 0 0 0 
29 1 0.780384 0.334142 0.5 0 0 0 
44 1 0.780384 0.667479 0.5 0 0 0 
60 2 0.796838 0.200365 0.5 -1.07319 0.619611 0 
62 2 0.796838 0.801257 0.5 -1.07319 -0.619611 0 
ITEM: TIMESTEP
8
ITEM: NUMBER OF ATOMS
62
ITEM: BOX BOUNDS pp pp pp
0.0000000000000000e+00 6.0000000000000000e+01
0.0000000000000000e+00 4.2607999000000003e+00
0.0000000000000000e+00 1.0000000000000000e+01
ITEM: ATOMS id type xs ys zs fx fy fz 
15 1 0.206384 0.334142 0.5 0 0 0 
30 1 0.206384 0.667479 0.5 0 0 0 
59 2 0.190649 0.206218 0.5 1.15087e-11 6.35281e-12 0 
61 2 0.190649 0.795404 0.5 1.12308e-11 -6.19482e-12 0 
1 1 0.226884 0.167474 0.5 0 0 0 
2 1 0.267884 0.167474 0.5 0 0 0 
16 1 0.247384 0.334142 0.5 0 0 0 
31 1 0.247384 0.667479 0.5 0 0 0 
45 1 0.226884 0.834147 0.5 0 0 0 
46 1 0.267884 0.834147 0.5 0 0 0 
3 1 0.308884 0.167474 0.5 0 0 0 
17 1 0.288384 0.334142 0.5 0 0 0 
18 1 0.329384 0.334142 0.5 0 0 0 
32 1 0.288384 0.667479 0.5 0 0 0 
33 1 0.329384 0.667479 0.5 0 0 0 
47 1 0.308884 0.834147 0.5 0 0 0 
4 1 0.349884 0.167474 0.5 0 0 0 
19 1 0.370384 0.334142 0.5 0 0 0 
34 1 0.370384 0.667479 0.5 0 0 0 
48 1 0.349884 0.834147 0.5 0 0 0 
5 1 0.390884 0.167474 0.5 0 0 0 
6 1 0.431884 0.167474 0.5 0 0 0 
20 1 0.411384 0.334142 0.5 0 0 0 
35 1 0.411384 0.667479 0.5 0 0 0 
49 1 0.390884 0.834147 0.5 0 0 0 
50 1 0.431884 0.834147 0.5 0 0 0 
7 1 0.472884 0.167474 0.5 0 0 0 
21 1 0.452384 0.334142 0.5 0 0 0 
22 1 0.493384 0.334142 0.5 0 0 0 
36 1 0.452384 0.667479 0.5 0 0 0 
37 1 0.493384 0.667479 0.5 0 0 0 
51 1 0.472884 0.834147 0.5 0 0 0 
8 1 0.513884 0.167474 0.5 0 0 0 
9 1 0.554884 0.167474 0.5 0 0 0 
23 1 0.534384 0.334142 0.5 0 0 0 
38 1 0.534384 0.667479 0.5 0 0 0 
52 1 0.513884 0.834147 0.5 0 0 0 
53 1 0.554884 0.834147 0.5 0 0 0 
10 1 0.595884 0.167474 0.5 0 0 0 
24 1 0.575384 0.334142 0.5 0 0 0 
39 1 0.575384 0.667479 0.5 0 0 0 
54 1 0.595884 0.834147 0.5 0 0 0 
11 1 0.636884 0.167474 0.5 0 0 0 
25 1 0.616384 0.334142 0.5 0 0 0 
26 1 0.657384 0.334142 0.5 0 0 0 
40 1 0.616384 0.667479 0.5 0 0 0 
41 1 0.657384 0.667479 0.5 0 0 0 
55 1 0.636884 0.834147 0.5 0 0 0 
12 1 0.677884 0.167474 0.5 0 0 0 
13 1 0.718884 0.167474 0.5 0 0 0 
27 1 0.698384 0.334142 0.5 0 0 0 
42 1 0.698384 0.667479 0.5 0 0 0 
56 1 0.677884 0.834147 0.5 0 0 0 
57 1 0.718884 0.834147 0.5 0 0 0 
14 1 0.759884 0.167474 0.5 0 0 0 
28 1 0.739384 0.334142 0.5 0 0 0 
43 1 0.739384 0.667479 0.5 0 0 0 
58 1 0.759884 0.834147 0.5 0 0 0 
29 1 0.780384 0.334142 0.5 0 0 0 
44 1 0.780384 0.667479 0.5 0 0 0 
60 2 0.796118 0.206218 0.5 -1.16147e-12 1.36948e-12 0 
62 2 0.796118 0.795404 0.5 2.47307e-12 6.95531e-13 0 
