ITEM: TIMESTEP
0
ITEM: NUMBER OF ATOMS
904
ITEM: BOX BOUNDS pp pp pp
0.0000000000000000e+00 4.0000000000000000e+01
0.0000000000000000e+00 1.2782530210000000e+02
0.0000000000000000e+00 1.0000000000000000e+01
ITEM: ATOMS id type xs ys zs fx fy fz 
341 2 0.22931 0.00667876 0.5 1.07322 0.619624 0 
343 2 0.22931 0.0267083 0.5 1.07322 -0.619624 0 
345 2 0.22931 0.0400121 0.5 1.07322 0.619627 0 
347 2 0.22931 0.0600416 0.5 1.07322 -0.619627 0 
349 2 0.22931 0.0733454 0.5 1.07322 0.619629 0 
351 2 0.22931 0.093375 0.5 1.07322 -0.619629 0 
353 2 0.22931 0.106679 0.5 1.07322 0.619623 0 
355 2 0.22931 0.126708 0.5 1.07322 -0.619623 0 
357 2 0.22931 0.140012 0.5 1.07323 0.619637 0 
359 2 0.22931 0.160042 0.5 1.07322 -0.619621 0 
445 2 0.22931 0.840012 0.5 1.07322 0.619622 0 
447 2 0.22931 0.860042 0.5 1.07322 -0.619621 0 
449 2 0.22931 0.873345 0.5 1.07322 0.619621 0 
451 2 0.22931 0.893375 0.5 1.07322 -0.619622 0 
453 2 0.22931 0.906679 0.5 1.07322 0.619621 0 
455 2 0.22931 0.926708 0.5 1.07322 -0.619622 0 
457 2 0.22931 0.940012 0.5 1.07322 0.619621 0 
459 2 0.22931 0.960042 0.5 1.07322 -0.619621 0 
461 2 0.22931 0.973345 0.5 1.07322 0.619622 0 
463 2 0.22931 0.993375 0.5 1.07322 -0.619621 0 
1 1 0.284741 0.00558241 0.5 0 0 0 
9 1 0.253991 0.011138 0.5 0 0 0 
10 1 0.315491 0.011138 0.5 0 0 0 
18 1 0.253991 0.0222491 0.5 0 0 0 
19 1 0.315491 0.0222491 0.5 0 0 0 
2 1 0.346241 0.00558241 0.5 0 0 0 
3 1 0.407741 0.00558241 0.5 0 0 0 
11 1 0.376991 0.011138 0.5 0 0 0 
20 1 0.376991 0.0222491 0.5 0 0 0 
4 1 0.469241 0.00558241 0.5 0 0 0 
12 1 0.438491 0.011138 0.5 0 0 0 
13 1 0.499991 0.011138 0.5 0 0 0 
21 1 0.438491 0.0222491 0.5 0 0 0 
22 1 0.499991 0.0222491 0.5 0 0 0 
27 1 0.284741 0.0278046 0.5 0 0 0 
35 1 0.284741 0.0389157 0.5 0 0 0 
43 1 0.253991 0.0444713 0.5 0 0 0 
44 1 0.315491 0.0444713 0.5 0 0 0 
28 1 0.346241 0.0278046 0.5 0 0 0 
29 1 0.407741 0.0278046 0.5 0 0 0 
36 1 0.346241 0.0389157 0.5 0 0 0 
37 1 0.407741 0.0389157 0.5 0 0 0 
45 1 0.376991 0.0444713 0.5 0 0 0 
30 1 0.469241 0.0278046 0.5 0 0 0 
38 1 0.469241 0.0389157 0.5 0 0 0 
46 1 0.438491 0.0444713 0.5 0 0 0 
47 1 0.499991 0.0444713 0.5 0 0 0 
52 1 0.253991 0.0555824 0.5 0 0 0 
53 1 0.315491 0.0555824 0.5 0 0 0 
61 1 0.284741 0.061138 0.5 0 0 0 
69 1 0.284741 0.0722491 0.5 0 0 0 
77 1 0.253991 0.0778046 0.5 0 0 0 
78 1 0.315491 0.0778046 0.5 0 0 0 
54 1 0.376991 0.0555824 0.5 0 0 0 
62 1 0.346241 0.061138 0.5 0 0 0 
63 1 0.407741 0.061138 0.5 0 0 0 
70 1 0.346241 0.0722491 0.5 0 0 0 
71 1 0.407741 0.0722491 0.5 0 0 0 
79 1 0.376991 0.0778046 0.5 0 0 0 
55 1 0.438491 0.0555824 0.5 0 0 0 
56 1 0.499991 0.0555824 0.5 0 0 0 
64 1 0.469241 0.061138 0.5 0 0 0 
72 1 0.469241 0.0722491 0.5 0 0 0 
80 1 0.438491 0.0778046 0.5 0 0 0 
81 1 0.499991 0.0778046 0.5 0 0 0 
86 1 0.253991 0.0889157 0.5 0 0 0 
87 1 0.315491 0.0889157 0.5 0 0 0 
95 1 0.284741 0.0944713 0.5 0 0 0 
103 1 0.284741 0.105582 0.5 0 0 0 
88 1 0.376991 0.0889157 0.5 0 0 0 
96 1 0.346241 0.0944713 0.5 0 0 0 
97 1 0.407741 0.0944713 0.5 0 0 0 
104 1 0.346241 0.105582 0.5 0 0 0 
105 1 0.407741 0.105582 0.5 0 0 0 
89 1 0.438491 0.0889157 0.5 0 0 0 
90 1 0.499991 0.0889157 0.5 0 0 0 
98 1 0.469241 0.0944713 0.5 0 0 0 
106 1 0.469241 0.105582 0.5 0 0 0 
111 1 0.253991 0.111138 0.5 0 0 0 
112 1 0.315491 0.111138 0.5 0 0 0 
120 1 0.253991 0.122249 0.5 0 0 0 
121 1 0.315491 0.122249 0.5 0 0 0 
129 1 0.284741 0.127805 0.5 0 0 0 
113 1 0.376991 0.111138 0.5 0 0 0 
122 1 0.376991 0.122249 0.5 0 0 0 
130 1 0.346241 0.127805 0.5 0 0 0 
131 1 0.407741 0.127805 0.5 0 0 0 
114 1 0.438491 0.111138 0.5 0 0 0 
115 1 0.499991 0.111138 0.5 0 0 0 
123 1 0.438491 0.122249 0.5 0 0 0 
124 1 0.499991 0.122249 0.5 0 0 0 
132 1 0.469241 0.127805 0.5 0 0 0 
137 1 0.284741 0.138916 0.5 0 0 0 
145 1 0.253991 0.144471 0.5 0 0 0 
146 1 0.315491 0.144471 0.5 0 0 0 
154 1 0.253991 0.155582 0.5 0 0 0 
155 1 0.315491 0.155582 0.5 0 0 0 
163 1 0.284741 0.161138 0.5 0 0 0 
138 1 0.346241 0.138916 0.5 0 0 0 
139 1 0.407741 0.138916 0.5 0 0 0 
147 1 0.376991 0.144471 0.5 0 0 0 
156 1 0.376991 0.155582 0.5 0 0 0 
164 1 0.346241 0.161138 0.5 0 0 0 
165 1 0.407741 0.161138 0.5 0 0 0 
140 1 0.469241 0.138916 0.5 0 0 0 
148 1 0.438491 0.144471 0.5 0 0 0 
149 1 0.499991 0.144471 0.5 0 0 0 
157 1 0.438491 0.155582 0.5 0 0 0 
158 1 0.499991 0.155582 0.5 0 0 0 
166 1 0.469241 0.161138 0.5 0 0 0 
361 2 0.284741 0.170056 0.5 1.30583e-07 -1.23925 0 
363 2 0.321559 0.176708 0.5 1.07324 -0.619628 0 
365 2 0.321559 0.190012 0.5 1.07324 0.619628 0 
465 3 0.346241 0.172249 0.5 0 0 0 
466 3 0.407741 0.172249 0.5 0 0 0 
471 3 0.376991 0.177805 0.5 0 0 0 
476 3 0.376991 0.188916 0.5 0 0 0 
467 3 0.469241 0.172249 0.5 0 0 0 
472 3 0.438491 0.177805 0.5 0 0 0 
473 3 0.499991 0.177805 0.5 0 0 0 
477 3 0.438491 0.188916 0.5 0 0 0 
478 3 0.499991 0.188916 0.5 0 0 0 
367 2 0.321559 0.210042 0.5 1.07324 -0.619628 0 
481 3 0.346241 0.194471 0.5 0 0 0 
482 3 0.407741 0.194471 0.5 0 0 0 
487 3 0.346241 0.205582 0.5 0 0 0 
488 3 0.407741 0.205582 0.5 0 0 0 
493 3 0.376991 0.211138 0.5 0 0 0 
483 3 0.469241 0.194471 0.5 0 0 0 
489 3 0.469241 0.205582 0.5 0 0 0 
494 3 0.438491 0.211138 0.5 0 0 0 
495 3 0.499991 0.211138 0.5 0 0 0 
369 2 0.321559 0.223345 0.5 1.07324 0.619628 0 
371 2 0.321559 0.243375 0.5 1.07324 -0.619628 0 
498 3 0.376991 0.222249 0.5 0 0 0 
503 3 0.346241 0.227805 0.5 0 0 0 
504 3 0.407741 0.227805 0.5 0 0 0 
509 3 0.346241 0.238916 0.5 0 0 0 
510 3 0.407741 0.238916 0.5 0 0 0 
515 3 0.376991 0.244471 0.5 0 0 0 
499 3 0.438491 0.222249 0.5 0 0 0 
500 3 0.499991 0.222249 0.5 0 0 0 
505 3 0.469241 0.227805 0.5 0 0 0 
511 3 0.469241 0.238916 0.5 0 0 0 
516 3 0.438491 0.244471 0.5 0 0 0 
517 3 0.499991 0.244471 0.5 0 0 0 
373 2 0.321559 0.256679 0.5 1.07324 0.619628 0 
375 2 0.321559 0.276708 0.5 1.07324 -0.619628 0 
520 3 0.376991 0.255582 0.5 0 0 0 
525 3 0.346241 0.261138 0.5 0 0 0 
526 3 0.407741 0.261138 0.5 0 0 0 
531 3 0.346241 0.272249 0.5 0 0 0 
532 3 0.407741 0.272249 0.5 0 0 0 
521 3 0.438491 0.255582 0.5 0 0 0 
522 3 0.499991 0.255582 0.5 0 0 0 
527 3 0.469241 0.261138 0.5 0 0 0 
533 3 0.469241 0.272249 0.5 0 0 0 
377 2 0.321559 0.290012 0.5 1.07324 0.619628 0 
537 3 0.376991 0.277805 0.5 0 0 0 
542 3 0.376991 0.288916 0.5 0 0 0 
547 3 0.346241 0.294471 0.5 0 0 0 
548 3 0.407741 0.294471 0.5 0 0 0 
538 3 0.438491 0.277805 0.5 0 0 0 
539 3 0.499991 0.277805 0.5 0 0 0 
543 3 0.438491 0.288916 0.5 0 0 0 
544 3 0.499991 0.288916 0.5 0 0 0 
549 3 0.469241 0.294471 0.5 0 0 0 
379 2 0.321559 0.310042 0.5 1.07324 -0.619628 0 
381 2 0.321559 0.323345 0.5 1.07324 0.619628 0 
553 3 0.346241 0.305582 0.5 0 0 0 
554 3 0.407741 0.305582 0.5 0 0 0 
559 3 0.376991 0.311138 0.5 0 0 0 
564 3 0.376991 0.322249 0.5 0 0 0 
569 3 0.346241 0.327805 0.5 0 0 0 
570 3 0.407741 0.327805 0.5 0 0 0 
555 3 0.469241 0.305582 0.5 0 0 0 
560 3 0.438491 0.311138 0.5 0 0 0 
561 3 0.499991 0.311138 0.5 0 0 0 
565 3 0.438491 0.322249 0.5 0 0 0 
566 3 0.499991 0.322249 0.5 0 0 0 
571 3 0.469241 0.327805 0.5 0 0 0 
383 2 0.321559 0.343375 0.5 1.07324 -0.619628 0 
385 2 0.321559 0.356679 0.5 1.07326 0.619661 0 
575 3 0.346241 0.338916 0.5 0 0 0 
576 3 0.407741 0.338916 0.5 0 0 0 
581 3 0.376991 0.344471 0.5 0 0 0 
586 3 0.376991 0.355582 0.5 0 0 0 
577 3 0.469241 0.338916 0.5 0 0 0 
582 3 0.438491 0.344471 0.5 0 0 0 
583 3 0.499991 0.344471 0.5 0 0 0 
587 3 0.438491 0.355582 0.5 0 0 0 
588 3 0.499991 0.355582 0.5 0 0 0 
387 2 0.321559 0.376708 0.5 1.07324 -0.619628 0 
591 3 0.346241 0.361138 0.5 0 0 0 
592 3 0.407741 0.361138 0.5 0 0 0 
597 3 0.346241 0.372249 0.5 0 0 0 
598 3 0.407741 0.372249 0.5 0 0 0 
603 3 0.376991 0.377805 0.5 0 0 0 
593 3 0.469241 0.361138 0.5 0 0 0 
599 3 0.469241 0.372249 0.5 0 0 0 
604 3 0.438491 0.377805 0.5 0 0 0 
605 3 0.499991 0.377805 0.5 0 0 0 
389 2 0.321559 0.390012 0.5 1.07324 0.619628 0 
391 2 0.321559 0.410042 0.5 1.07324 -0.619628 0 
608 3 0.376991 0.388916 0.5 0 0 0 
613 3 0.346241 0.394471 0.5 0 0 0 
614 3 0.407741 0.394471 0.5 0 0 0 
619 3 0.346241 0.405582 0.5 0 0 0 
620 3 0.407741 0.405582 0.5 0 0 0 
625 3 0.376991 0.411138 0.5 0 0 0 
609 3 0.438491 0.388916 0.5 0 0 0 
610 3 0.499991 0.388916 0.5 0 0 0 
615 3 0.469241 0.394471 0.5 0 0 0 
621 3 0.469241 0.405582 0.5 0 0 0 
626 3 0.438491 0.411138 0.5 0 0 0 
627 3 0.499991 0.411138 0.5 0 0 0 
393 2 0.321559 0.423345 0.5 1.07323 0.619636 0 
395 2 0.321559 0.443375 0.5 1.07323 -0.619636 0 
630 3 0.376991 0.422249 0.5 0 0 0 
635 3 0.346241 0.427805 0.5 0 0 0 
636 3 0.407741 0.427805 0.5 0 0 0 
641 3 0.346241 0.438916 0.5 0 0 0 
642 3 0.407741 0.438916 0.5 0 0 0 
631 3 0.438491 0.422249 0.5 0 0 0 
632 3 0.499991 0.422249 0.5 0 0 0 
637 3 0.469241 0.427805 0.5 0 0 0 
643 3 0.469241 0.438916 0.5 0 0 0 
397 2 0.321559 0.456679 0.5 1.07324 0.619628 0 
647 3 0.376991 0.444471 0.5 0 0 0 
652 3 0.376991 0.455582 0.5 0 0 0 
657 3 0.346241 0.461138 0.5 0 0 0 
658 3 0.407741 0.461138 0.5 0 0 0 
648 3 0.438491 0.444471 0.5 0 0 0 
649 3 0.499991 0.444471 0.5 0 0 0 
653 3 0.438491 0.455582 0.5 0 0 0 
654 3 0.499991 0.455582 0.5 0 0 0 
659 3 0.469241 0.461138 0.5 0 0 0 
399 2 0.321559 0.476708 0.5 1.07324 -0.619628 0 
401 2 0.321559 0.490012 0.5 1.07323 0.619636 0 
663 3 0.346241 0.472249 0.5 0 0 0 
664 3 0.407741 0.472249 0.5 0 0 0 
669 3 0.376991 0.477805 0.5 0 0 0 
674 3 0.376991 0.488916 0.5 0 0 0 
679 3 0.346241 0.494471 0.5 0 0 0 
680 3 0.407741 0.494471 0.5 0 0 0 
665 3 0.469241 0.472249 0.5 0 0 0 
670 3 0.438491 0.477805 0.5 0 0 0 
671 3 0.499991 0.477805 0.5 0 0 0 
675 3 0.438491 0.488916 0.5 0 0 0 
676 3 0.499991 0.488916 0.5 0 0 0 
681 3 0.469241 0.494471 0.5 0 0 0 
403 2 0.321559 0.510042 0.5 1.07323 -0.619636 0 
405 2 0.321559 0.523345 0.5 1.07323 0.619628 0 
685 3 0.346241 0.505582 0.5 0 0 0 
686 3 0.407741 0.505582 0.5 0 0 0 
691 3 0.376991 0.511138 0.5 0 0 0 
696 3 0.376991 0.522249 0.5 0 0 0 
687 3 0.469241 0.505582 0.5 0 0 0 
692 3 0.438491 0.511138 0.5 0 0 0 
693 3 0.499991 0.511138 0.5 0 0 0 
697 3 0.438491 0.522249 0.5 0 0 0 
698 3 0.499991 0.522249 0.5 0 0 0 
407 2 0.321559 0.543375 0.5 1.07324 -0.619629 0 
701 3 0.346241 0.527805 0.5 0 0 0 
702 3 0.407741 0.527805 0.5 0 0 0 
707 3 0.346241 0.538916 0.5 0 0 0 
708 3 0.407741 0.538916 0.5 0 0 0 
713 3 0.376991 0.544471 0.5 0 0 0 
703 3 0.469241 0.527805 0.5 0 0 0 
709 3 0.469241 0.538916 0.5 0 0 0 
714 3 0.438491 0.544471 0.5 0 0 0 
715 3 0.499991 0.544471 0.5 0 0 0 
409 2 0.321559 0.556679 0.5 1.07324 0.619629 0 
411 2 0.321559 0.576708 0.5 1.07323 -0.619628 0 
718 3 0.376991 0.555582 0.5 0 0 0 
723 3 0.346241 0.561138 0.5 0 0 0 
724 3 0.407741 0.561138 0.5 0 0 0 
729 3 0.346241 0.572249 0.5 0 0 0 
730 3 0.407741 0.572249 0.5 0 0 0 
735 3 0.376991 0.577805 0.5 0 0 0 
719 3 0.438491 0.555582 0.5 0 0 0 
720 3 0.499991 0.555582 0.5 0 0 0 
725 3 0.469241 0.561138 0.5 0 0 0 
731 3 0.469241 0.572249 0.5 0 0 0 
736 3 0.438491 0.577805 0.5 0 0 0 
737 3 0.499991 0.577805 0.5 0 0 0 
413 2 0.321559 0.590012 0.5 1.07324 0.619629 0 
415 2 0.321559 0.610042 0.5 1.07323 -0.619628 0 
740 3 0.376991 0.588916 0.5 0 0 0 
745 3 0.346241 0.594471 0.5 0 0 0 
746 3 0.407741 0.594471 0.5 0 0 0 
751 3 0.346241 0.605582 0.5 0 0 0 
752 3 0.407741 0.605582 0.5 0 0 0 
741 3 0.438491 0.588916 0.5 0 0 0 
742 3 0.499991 0.588916 0.5 0 0 0 
747 3 0.469241 0.594471 0.5 0 0 0 
753 3 0.469241 0.605582 0.5 0 0 0 
417 2 0.321559 0.623345 0.5 1.07323 0.619644 0 
757 3 0.376991 0.611138 0.5 0 0 0 
762 3 0.376991 0.622249 0.5 0 0 0 
767 3 0.346241 0.627805 0.5 0 0 0 
768 3 0.407741 0.627805 0.5 0 0 0 
758 3 0.438491 0.611138 0.5 0 0 0 
759 3 0.499991 0.611138 0.5 0 0 0 
763 3 0.438491 0.622249 0.5 0 0 0 
764 3 0.499991 0.622249 0.5 0 0 0 
769 3 0.469241 0.627805 0.5 0 0 0 
419 2 0.321559 0.643375 0.5 1.07323 -0.619644 0 
421 2 0.321559 0.656679 0.5 1.07323 0.619628 0 
773 3 0.346241 0.638916 0.5 0 0 0 
774 3 0.407741 0.638916 0.5 0 0 0 
779 3 0.376991 0.644471 0.5 0 0 0 
784 3 0.376991 0.655582 0.5 0 0 0 
789 3 0.346241 0.661138 0.5 0 0 0 
790 3 0.407741 0.661138 0.5 0 0 0 
775 3 0.469241 0.638916 0.5 0 0 0 
780 3 0.438491 0.644471 0.5 0 0 0 
781 3 0.499991 0.644471 0.5 0 0 0 
785 3 0.438491 0.655582 0.5 0 0 0 
786 3 0.499991 0.655582 0.5 0 0 0 
791 3 0.469241 0.661138 0.5 0 0 0 
423 2 0.321559 0.676708 0.5 1.07324 -0.619629 0 
425 2 0.321559 0.690012 0.5 1.07323 0.619628 0 
795 3 0.346241 0.672249 0.5 0 0 0 
796 3 0.407741 0.672249 0.5 0 0 0 
801 3 0.376991 0.677805 0.5 0 0 0 
806 3 0.376991 0.688916 0.5 0 0 0 
797 3 0.469241 0.672249 0.5 0 0 0 
802 3 0.438491 0.677805 0.5 0 0 0 
803 3 0.499991 0.677805 0.5 0 0 0 
807 3 0.438491 0.688916 0.5 0 0 0 
808 3 0.499991 0.688916 0.5 0 0 0 
427 2 0.321559 0.710042 0.5 1.07323 -0.619627 0 
811 3 0.346241 0.694471 0.5 0 0 0 
812 3 0.407741 0.694471 0.5 0 0 0 
817 3 0.346241 0.705582 0.5 0 0 0 
818 3 0.407741 0.705582 0.5 0 0 0 
823 3 0.376991 0.711138 0.5 0 0 0 
813 3 0.469241 0.694471 0.5 0 0 0 
819 3 0.469241 0.705582 0.5 0 0 0 
824 3 0.438491 0.711138 0.5 0 0 0 
825 3 0.499991 0.711138 0.5 0 0 0 
429 2 0.321559 0.723345 0.5 1.07324 0.619629 0 
431 2 0.321559 0.743375 0.5 1.07323 -0.619628 0 
828 3 0.376991 0.722249 0.5 0 0 0 
833 3 0.346241 0.727805 0.5 0 0 0 
834 3 0.407741 0.727805 0.5 0 0 0 
839 3 0.346241 0.738916 0.5 0 0 0 
840 3 0.407741 0.738916 0.5 0 0 0 
845 3 0.376991 0.744471 0.5 0 0 0 
829 3 0.438491 0.722249 0.5 0 0 0 
830 3 0.499991 0.722249 0.5 0 0 0 
835 3 0.469241 0.727805 0.5 0 0 0 
841 3 0.469241 0.738916 0.5 0 0 0 
846 3 0.438491 0.744471 0.5 0 0 0 
847 3 0.499991 0.744471 0.5 0 0 0 
433 2 0.321559 0.756679 0.5 1.07324 0.619629 0 
435 2 0.321559 0.776708 0.5 1.07323 -0.619628 0 
850 3 0.376991 0.755582 0.5 0 0 0 
855 3 0.346241 0.761138 0.5 0 0 0 
856 3 0.407741 0.761138 0.5 0 0 0 
861 3 0.346241 0.772249 0.5 0 0 0 
862 3 0.407741 0.772249 0.5 0 0 0 
851 3 0.438491 0.755582 0.5 0 0 0 
852 3 0.499991 0.755582 0.5 0 0 0 
857 3 0.469241 0.761138 0.5 0 0 0 
863 3 0.469241 0.772249 0.5 0 0 0 
437 2 0.321559 0.790012 0.5 1.07323 0.619628 0 
867 3 0.376991 0.777805 0.5 0 0 0 
872 3 0.376991 0.788916 0.5 0 0 0 
877 3 0.346241 0.794471 0.5 0 0 0 
878 3 0.407741 0.794471 0.5 0 0 0 
868 3 0.438491 0.777805 0.5 0 0 0 
869 3 0.499991 0.777805 0.5 0 0 0 
873 3 0.438491 0.788916 0.5 0 0 0 
874 3 0.499991 0.788916 0.5 0 0 0 
879 3 0.469241 0.794471 0.5 0 0 0 
439 2 0.321559 0.810042 0.5 1.07324 -0.619629 0 
441 2 0.321559 0.823345 0.5 1.07323 0.619628 0 
443 2 0.284741 0.829997 0.5 1.30577e-07 1.23924 0 
883 3 0.346241 0.805582 0.5 0 0 0 
884 3 0.407741 0.805582 0.5 0 0 0 
889 3 0.376991 0.811138 0.5 0 0 0 
894 3 0.376991 0.822249 0.5 0 0 0 
899 3 0.346241 0.827805 0.5 0 0 0 
900 3 0.407741 0.827805 0.5 0 0 0 
885 3 0.469241 0.805582 0.5 0 0 0 
890 3 0.438491 0.811138 0.5 0 0 0 
891 3 0.499991 0.811138 0.5 0 0 0 
895 3 0.438491 0.822249 0.5 0 0 0 
896 3 0.499991 0.822249 0.5 0 0 0 
901 3 0.469241 0.827805 0.5 0 0 0 
171 1 0.284741 0.838916 0.5 0 0 0 
179 1 0.253991 0.844471 0.5 0 0 0 
180 1 0.315491 0.844471 0.5 0 0 0 
188 1 0.253991 0.855582 0.5 0 0 0 
189 1 0.315491 0.855582 0.5 0 0 0 
172 1 0.346241 0.838916 0.5 0 0 0 
173 1 0.407741 0.838916 0.5 0 0 0 
181 1 0.376991 0.844471 0.5 0 0 0 
190 1 0.376991 0.855582 0.5 0 0 0 
174 1 0.469241 0.838916 0.5 0 0 0 
182 1 0.438491 0.844471 0.5 0 0 0 
183 1 0.499991 0.844471 0.5 0 0 0 
191 1 0.438491 0.855582 0.5 0 0 0 
192 1 0.499991 0.855582 0.5 0 0 0 
197 1 0.284741 0.861138 0.5 0 0 0 
205 1 0.284741 0.872249 0.5 0 0 0 
213 1 0.253991 0.877805 0.5 0 0 0 
214 1 0.315491 0.877805 0.5 0 0 0 
198 1 0.346241 0.861138 0.5 0 0 0 
199 1 0.407741 0.861138 0.5 0 0 0 
206 1 0.346241 0.872249 0.5 0 0 0 
207 1 0.407741 0.872249 0.5 0 0 0 
215 1 0.376991 0.877805 0.5 0 0 0 
200 1 0.469241 0.861138 0.5 0 0 0 
208 1 0.469241 0.872249 0.5 0 0 0 
216 1 0.438491 0.877805 0.5 0 0 0 
217 1 0.499991 0.877805 0.5 0 0 0 
222 1 0.253991 0.888916 0.5 0 0 0 
223 1 0.315491 0.888916 0.5 0 0 0 
231 1 0.284741 0.894471 0.5 0 0 0 
239 1 0.284741 0.905582 0.5 0 0 0 
247 1 0.253991 0.911138 0.5 0 0 0 
248 1 0.315491 0.911138 0.5 0 0 0 
224 1 0.376991 0.888916 0.5 0 0 0 
232 1 0.346241 0.894471 0.5 0 0 0 
233 1 0.407741 0.894471 0.5 0 0 0 
240 1 0.346241 0.905582 0.5 0 0 0 
241 1 0.407741 0.905582 0.5 0 0 0 
249 1 0.376991 0.911138 0.5 0 0 0 
225 1 0.438491 0.888916 0.5 0 0 0 
226 1 0.499991 0.888916 0.5 0 0 0 
234 1 0.469241 0.894471 0.5 0 0 0 
242 1 0.469241 0.905582 0.5 0 0 0 
250 1 0.438491 0.911138 0.5 0 0 0 
251 1 0.499991 0.911138 0.5 0 0 0 
256 1 0.253991 0.922249 0.5 0 0 0 
257 1 0.315491 0.922249 0.5 0 0 0 
265 1 0.284741 0.927805 0.5 0 0 0 
273 1 0.284741 0.938916 0.5 0 0 0 
258 1 0.376991 0.922249 0.5 0 0 0 
266 1 0.346241 0.927805 0.5 0 0 0 
267 1 0.407741 0.927805 0.5 0 0 0 
274 1 0.346241 0.938916 0.5 0 0 0 
275 1 0.407741 0.938916 0.5 0 0 0 
259 1 0.438491 0.922249 0.5 0 0 0 
260 1 0.499991 0.922249 0.5 0 0 0 
268 1 0.469241 0.927805 0.5 0 0 0 
276 1 0.469241 0.938916 0.5 0 0 0 
281 1 0.253991 0.944471 0.5 0 0 0 
282 1 0.315491 0.944471 0.5 0 0 0 
290 1 0.253991 0.955582 0.5 0 0 0 
291 1 0.315491 0.955582 0.5 0 0 0 
299 1 0.284741 0.961138 0.5 0 0 0 
283 1 0.376991 0.944471 0.5 0 0 0 
292 1 0.376991 0.955582 0.5 0 0 0 
300 1 0.346241 0.961138 0.5 0 0 0 
301 1 0.407741 0.961138 0.5 0 0 0 
284 1 0.438491 0.944471 0.5 0 0 0 
285 1 0.499991 0.944471 0.5 0 0 0 
293 1 0.438491 0.955582 0.5 0 0 0 
294 1 0.499991 0.955582 0.5 0 0 0 
302 1 0.469241 0.961138 0.5 0 0 0 
307 1 0.284741 0.972249 0.5 0 0 0 
315 1 0.253991 0.977805 0.5 0 0 0 
316 1 0.315491 0.977805 0.5 0 0 0 
324 1 0.253991 0.988916 0.5 0 0 0 
325 1 0.315491 0.988916 0.5 0 0 0 
333 1 0.284741 0.994471 0.5 0 0 0 
308 1 0.346241 0.972249 0.5 0 0 0 
309 1 0.407741 0.972249 0.5 0 0 0 
317 1 0.376991 0.977805 0.5 0 0 0 
326 1 0.376991 0.988916 0.5 0 0 0 
334 1 0.346241 0.994471 0.5 0 0 0 
335 1 0.407741 0.994471 0.5 0 0 0 
310 1 0.469241 0.972249 0.5 0 0 0 
318 1 0.438491 0.977805 0.5 0 0 0 
319 1 0.499991 0.977805 0.5 0 0 0 
327 1 0.438491 0.988916 0.5 0 0 0 
328 1 0.499991 0.988916 0.5 0 0 0 
336 1 0.469241 0.994471 0.5 0 0 0 
5 1 0.530741 0.00558241 0.5 0 0 0 
14 1 0.561491 0.011138 0.5 0 0 0 
23 1 0.561491 0.0222491 0.5 0 0 0 
6 1 0.592241 0.00558241 0.5 0 0 0 
7 1 0.653741 0.00558241 0.5 0 0 0 
15 1 0.622991 0.011138 0.5 0 0 0 
24 1 0.622991 0.0222491 0.5 0 0 0 
8 1 0.715241 0.00558241 0.5 0 0 0 
16 1 0.684491 0.011138 0.5 0 0 0 
17 1 0.745991 0.011138 0.5 0 0 0 
25 1 0.684491 0.0222491 0.5 0 0 0 
26 1 0.745991 0.0222491 0.5 0 0 0 
31 1 0.530741 0.0278046 0.5 0 0 0 
39 1 0.530741 0.0389157 0.5 0 0 0 
48 1 0.561491 0.0444713 0.5 0 0 0 
32 1 0.592241 0.0278046 0.5 0 0 0 
33 1 0.653741 0.0278046 0.5 0 0 0 
40 1 0.592241 0.0389157 0.5 0 0 0 
41 1 0.653741 0.0389157 0.5 0 0 0 
49 1 0.622991 0.0444713 0.5 0 0 0 
34 1 0.715241 0.0278046 0.5 0 0 0 
42 1 0.715241 0.0389157 0.5 0 0 0 
50 1 0.684491 0.0444713 0.5 0 0 0 
51 1 0.745991 0.0444713 0.5 0 0 0 
57 1 0.561491 0.0555824 0.5 0 0 0 
65 1 0.530741 0.061138 0.5 0 0 0 
73 1 0.530741 0.0722491 0.5 0 0 0 
82 1 0.561491 0.0778046 0.5 0 0 0 
58 1 0.622991 0.0555824 0.5 0 0 0 
66 1 0.592241 0.061138 0.5 0 0 0 
67 1 0.653741 0.061138 0.5 0 0 0 
74 1 0.592241 0.0722491 0.5 0 0 0 
75 1 0.653741 0.0722491 0.5 0 0 0 
83 1 0.622991 0.0778046 0.5 0 0 0 
59 1 0.684491 0.0555824 0.5 0 0 0 
60 1 0.745991 0.0555824 0.5 0 0 0 
68 1 0.715241 0.061138 0.5 0 0 0 
76 1 0.715241 0.0722491 0.5 0 0 0 
84 1 0.684491 0.0778046 0.5 0 0 0 
85 1 0.745991 0.0778046 0.5 0 0 0 
91 1 0.561491 0.0889157 0.5 0 0 0 
99 1 0.530741 0.0944713 0.5 0 0 0 
107 1 0.530741 0.105582 0.5 0 0 0 
92 1 0.622991 0.0889157 0.5 0 0 0 
100 1 0.592241 0.0944713 0.5 0 0 0 
101 1 0.653741 0.0944713 0.5 0 0 0 
108 1 0.592241 0.105582 0.5 0 0 0 
109 1 0.653741 0.105582 0.5 0 0 0 
93 1 0.684491 0.0889157 0.5 0 0 0 
94 1 0.745991 0.0889157 0.5 0 0 0 
102 1 0.715241 0.0944713 0.5 0 0 0 
110 1 0.715241 0.105582 0.5 0 0 0 
116 1 0.561491 0.111138 0.5 0 0 0 
125 1 0.561491 0.122249 0.5 0 0 0 
133 1 0.530741 0.127805 0.5 0 0 0 
117 1 0.622991 0.111138 0.5 0 0 0 
126 1 0.622991 0.122249 0.5 0 0 0 
134 1 0.592241 0.127805 0.5 0 0 0 
135 1 0.653741 0.127805 0.5 0 0 0 
118 1 0.684491 0.111138 0.5 0 0 0 
119 1 0.745991 0.111138 0.5 0 0 0 
127 1 0.684491 0.122249 0.5 0 0 0 
128 1 0.745991 0.122249 0.5 0 0 0 
136 1 0.715241 0.127805 0.5 0 0 0 
141 1 0.530741 0.138916 0.5 0 0 0 
150 1 0.561491 0.144471 0.5 0 0 0 
159 1 0.561491 0.155582 0.5 0 0 0 
167 1 0.530741 0.161138 0.5 0 0 0 
142 1 0.592241 0.138916 0.5 0 0 0 
143 1 0.653741 0.138916 0.5 0 0 0 
151 1 0.622991 0.144471 0.5 0 0 0 
160 1 0.622991 0.155582 0.5 0 0 0 
168 1 0.592241 0.161138 0.5 0 0 0 
169 1 0.653741 0.161138 0.5 0 0 0 
144 1 0.715241 0.138916 0.5 0 0 0 
152 1 0.684491 0.144471 0.5 0 0 0 
153 1 0.745991 0.144471 0.5 0 0 0 
161 1 0.684491 0.155582 0.5 0 0 0 
162 1 0.745991 0.155582 0.5 0 0 0 
170 1 0.715241 0.161138 0.5 0 0 0 
468 3 0.530741 0.172249 0.5 0 0 0 
474 3 0.561491 0.177805 0.5 0 0 0 
479 3 0.561491 0.188916 0.5 0 0 0 
469 3 0.592241 0.172249 0.5 0 0 0 
470 3 0.653741 0.172249 0.5 0 0 0 
475 3 0.622991 0.177805 0.5 0 0 0 
480 3 0.622991 0.188916 0.5 0 0 0 
362 2 0.715241 0.170056 0.5 1.30583e-07 -1.23925 0 
364 2 0.678423 0.176708 0.5 -1.07325 -0.61964 0 
366 2 0.678423 0.190012 0.5 -1.07325 0.61964 0 
484 3 0.530741 0.194471 0.5 0 0 0 
490 3 0.530741 0.205582 0.5 0 0 0 
496 3 0.561491 0.211138 0.5 0 0 0 
485 3 0.592241 0.194471 0.5 0 0 0 
486 3 0.653741 0.194471 0.5 0 0 0 
491 3 0.592241 0.205582 0.5 0 0 0 
492 3 0.653741 0.205582 0.5 0 0 0 
497 3 0.622991 0.211138 0.5 0 0 0 
368 2 0.678423 0.210042 0.5 -1.07325 -0.61964 0 
501 3 0.561491 0.222249 0.5 0 0 0 
506 3 0.530741 0.227805 0.5 0 0 0 
512 3 0.530741 0.238916 0.5 0 0 0 
518 3 0.561491 0.244471 0.5 0 0 0 
502 3 0.622991 0.222249 0.5 0 0 0 
507 3 0.592241 0.227805 0.5 0 0 0 
508 3 0.653741 0.227805 0.5 0 0 0 
513 3 0.592241 0.238916 0.5 0 0 0 
514 3 0.653741 0.238916 0.5 0 0 0 
519 3 0.622991 0.244471 0.5 0 0 0 
370 2 0.678423 0.223345 0.5 -1.07325 0.61964 0 
372 2 0.678423 0.243375 0.5 -1.07325 -0.61964 0 
523 3 0.561491 0.255582 0.5 0 0 0 
528 3 0.530741 0.261138 0.5 0 0 0 
534 3 0.530741 0.272249 0.5 0 0 0 
524 3 0.622991 0.255582 0.5 0 0 0 
529 3 0.592241 0.261138 0.5 0 0 0 
530 3 0.653741 0.261138 0.5 0 0 0 
535 3 0.592241 0.272249 0.5 0 0 0 
536 3 0.653741 0.272249 0.5 0 0 0 
374 2 0.678423 0.256679 0.5 -1.07325 0.61964 0 
376 2 0.678423 0.276708 0.5 -1.07325 -0.61964 0 
540 3 0.561491 0.277805 0.5 0 0 0 
545 3 0.561491 0.288916 0.5 0 0 0 
550 3 0.530741 0.294471 0.5 0 0 0 
541 3 0.622991 0.277805 0.5 0 0 0 
546 3 0.622991 0.288916 0.5 0 0 0 
551 3 0.592241 0.294471 0.5 0 0 0 
552 3 0.653741 0.294471 0.5 0 0 0 
378 2 0.678423 0.290012 0.5 -1.07325 0.61964 0 
556 3 0.530741 0.305582 0.5 0 0 0 
562 3 0.561491 0.311138 0.5 0 0 0 
567 3 0.561491 0.322249 0.5 0 0 0 
572 3 0.530741 0.327805 0.5 0 0 0 
557 3 0.592241 0.305582 0.5 0 0 0 
558 3 0.653741 0.305582 0.5 0 0 0 
563 3 0.622991 0.311138 0.5 0 0 0 
568 3 0.622991 0.322249 0.5 0 0 0 
573 3 0.592241 0.327805 0.5 0 0 0 
574 3 0.653741 0.327805 0.5 0 0 0 
380 2 0.678423 0.310042 0.5 -1.07325 -0.61964 0 
382 2 0.678423 0.323345 0.5 -1.07325 0.61964 0 
578 3 0.530741 0.338916 0.5 0 0 0 
584 3 0.561491 0.344471 0.5 0 0 0 
589 3 0.561491 0.355582 0.5 0 0 0 
579 3 0.592241 0.338916 0.5 0 0 0 
580 3 0.653741 0.338916 0.5 0 0 0 
585 3 0.622991 0.344471 0.5 0 0 0 
590 3 0.622991 0.355582 0.5 0 0 0 
384 2 0.678423 0.343375 0.5 -1.07325 -0.61964 0 
386 2 0.678423 0.356679 0.5 -1.07328 0.619673 0 
594 3 0.530741 0.361138 0.5 0 0 0 
600 3 0.530741 0.372249 0.5 0 0 0 
606 3 0.561491 0.377805 0.5 0 0 0 
595 3 0.592241 0.361138 0.5 0 0 0 
596 3 0.653741 0.361138 0.5 0 0 0 
601 3 0.592241 0.372249 0.5 0 0 0 
602 3 0.653741 0.372249 0.5 0 0 0 
607 3 0.622991 0.377805 0.5 0 0 0 
388 2 0.678423 0.376708 0.5 -1.07325 -0.61964 0 
611 3 0.561491 0.388916 0.5 0 0 0 
616 3 0.530741 0.394471 0.5 0 0 0 
622 3 0.530741 0.405582 0.5 0 0 0 
628 3 0.561491 0.411138 0.5 0 0 0 
612 3 0.622991 0.388916 0.5 0 0 0 
617 3 0.592241 0.394471 0.5 0 0 0 
618 3 0.653741 0.394471 0.5 0 0 0 
623 3 0.592241 0.405582 0.5 0 0 0 
624 3 0.653741 0.405582 0.5 0 0 0 
629 3 0.622991 0.411138 0.5 0 0 0 
390 2 0.678423 0.390012 0.5 -1.07325 0.61964 0 
392 2 0.678423 0.410042 0.5 -1.07325 -0.61964 0 
633 3 0.561491 0.422249 0.5 0 0 0 
638 3 0.530741 0.427805 0.5 0 0 0 
644 3 0.530741 0.438916 0.5 0 0 0 
634 3 0.622991 0.422249 0.5 0 0 0 
639 3 0.592241 0.427805 0.5 0 0 0 
640 3 0.653741 0.427805 0.5 0 0 0 
645 3 0.592241 0.438916 0.5 0 0 0 
646 3 0.653741 0.438916 0.5 0 0 0 
394 2 0.678423 0.423345 0.5 -1.07325 0.619648 0 
396 2 0.678423 0.443375 0.5 -1.07325 -0.619648 0 
650 3 0.561491 0.444471 0.5 0 0 0 
655 3 0.561491 0.455582 0.5 0 0 0 
660 3 0.530741 0.461138 0.5 0 0 0 
651 3 0.622991 0.444471 0.5 0 0 0 
656 3 0.622991 0.455582 0.5 0 0 0 
661 3 0.592241 0.461138 0.5 0 0 0 
662 3 0.653741 0.461138 0.5 0 0 0 
398 2 0.678423 0.456679 0.5 -1.07325 0.61964 0 
666 3 0.530741 0.472249 0.5 0 0 0 
672 3 0.561491 0.477805 0.5 0 0 0 
677 3 0.561491 0.488916 0.5 0 0 0 
682 3 0.530741 0.494471 0.5 0 0 0 
667 3 0.592241 0.472249 0.5 0 0 0 
668 3 0.653741 0.472249 0.5 0 0 0 
673 3 0.622991 0.477805 0.5 0 0 0 
678 3 0.622991 0.488916 0.5 0 0 0 
683 3 0.592241 0.494471 0.5 0 0 0 
684 3 0.653741 0.494471 0.5 0 0 0 
400 2 0.678423 0.476708 0.5 -1.07325 -0.61964 0 
402 2 0.678423 0.490012 0.5 -1.07325 0.619648 0 
688 3 0.530741 0.505582 0.5 0 0 0 
694 3 0.561491 0.511138 0.5 0 0 0 
699 3 0.561491 0.522249 0.5 0 0 0 
689 3 0.592241 0.505582 0.5 0 0 0 
690 3 0.653741 0.505582 0.5 0 0 0 
695 3 0.622991 0.511138 0.5 0 0 0 
700 3 0.622991 0.522249 0.5 0 0 0 
404 2 0.678423 0.510042 0.5 -1.07325 -0.619648 0 
406 2 0.678423 0.523345 0.5 -1.07325 0.61964 0 
704 3 0.530741 0.527805 0.5 0 0 0 
710 3 0.530741 0.538916 0.5 0 0 0 
716 3 0.561491 0.544471 0.5 0 0 0 
705 3 0.592241 0.527805 0.5 0 0 0 
706 3 0.653741 0.527805 0.5 0 0 0 
711 3 0.592241 0.538916 0.5 0 0 0 
712 3 0.653741 0.538916 0.5 0 0 0 
717 3 0.622991 0.544471 0.5 0 0 0 
408 2 0.678423 0.543375 0.5 -1.07325 -0.619641 0 
721 3 0.561491 0.555582 0.5 0 0 0 
726 3 0.530741 0.561138 0.5 0 0 0 
732 3 0.530741 0.572249 0.5 0 0 0 
738 3 0.561491 0.577805 0.5 0 0 0 
722 3 0.622991 0.555582 0.5 0 0 0 
727 3 0.592241 0.561138 0.5 0 0 0 
728 3 0.653741 0.561138 0.5 0 0 0 
733 3 0.592241 0.572249 0.5 0 0 0 
734 3 0.653741 0.572249 0.5 0 0 0 
739 3 0.622991 0.577805 0.5 0 0 0 
410 2 0.678423 0.556679 0.5 -1.07325 0.61964 0 
412 2 0.678423 0.576708 0.5 -1.07325 -0.61964 0 
743 3 0.561491 0.588916 0.5 0 0 0 
748 3 0.530741 0.594471 0.5 0 0 0 
754 3 0.530741 0.605582 0.5 0 0 0 
744 3 0.622991 0.588916 0.5 0 0 0 
749 3 0.592241 0.594471 0.5 0 0 0 
750 3 0.653741 0.594471 0.5 0 0 0 
755 3 0.592241 0.605582 0.5 0 0 0 
756 3 0.653741 0.605582 0.5 0 0 0 
414 2 0.678423 0.590012 0.5 -1.07325 0.61964 0 
416 2 0.678423 0.610042 0.5 -1.07325 -0.61964 0 
760 3 0.561491 0.611138 0.5 0 0 0 
765 3 0.561491 0.622249 0.5 0 0 0 
770 3 0.530741 0.627805 0.5 0 0 0 
761 3 0.622991 0.611138 0.5 0 0 0 
766 3 0.622991 0.622249 0.5 0 0 0 
771 3 0.592241 0.627805 0.5 0 0 0 
772 3 0.653741 0.627805 0.5 0 0 0 
418 2 0.678423 0.623345 0.5 -1.07324 0.619656 0 
776 3 0.530741 0.638916 0.5 0 0 0 
782 3 0.561491 0.644471 0.5 0 0 0 
787 3 0.561491 0.655582 0.5 0 0 0 
792 3 0.530741 0.661138 0.5 0 0 0 
777 3 0.592241 0.638916 0.5 0 0 0 
778 3 0.653741 0.638916 0.5 0 0 0 
783 3 0.622991 0.644471 0.5 0 0 0 
788 3 0.622991 0.655582 0.5 0 0 0 
793 3 0.592241 0.661138 0.5 0 0 0 
794 3 0.653741 0.661138 0.5 0 0 0 
420 2 0.678423 0.643375 0.5 -1.07324 -0.619656 0 
422 2 0.678423 0.656679 0.5 -1.07325 0.61964 0 
798 3 0.530741 0.672249 0.5 0 0 0 
804 3 0.561491 0.677805 0.5 0 0 0 
809 3 0.561491 0.688916 0.5 0 0 0 
799 3 0.592241 0.672249 0.5 0 0 0 
800 3 0.653741 0.672249 0.5 0 0 0 
805 3 0.622991 0.677805 0.5 0 0 0 
810 3 0.622991 0.688916 0.5 0 0 0 
424 2 0.678423 0.676708 0.5 -1.07325 -0.619641 0 
426 2 0.678423 0.690012 0.5 -1.07325 0.61964 0 
814 3 0.530741 0.694471 0.5 0 0 0 
820 3 0.530741 0.705582 0.5 0 0 0 
826 3 0.561491 0.711138 0.5 0 0 0 
815 3 0.592241 0.694471 0.5 0 0 0 
816 3 0.653741 0.694471 0.5 0 0 0 
821 3 0.592241 0.705582 0.5 0 0 0 
822 3 0.653741 0.705582 0.5 0 0 0 
827 3 0.622991 0.711138 0.5 0 0 0 
428 2 0.678423 0.710042 0.5 -1.07325 -0.619639 0 
831 3 0.561491 0.722249 0.5 0 0 0 
836 3 0.530741 0.727805 0.5 0 0 0 
842 3 0.530741 0.738916 0.5 0 0 0 
848 3 0.561491 0.744471 0.5 0 0 0 
832 3 0.622991 0.722249 0.5 0 0 0 
837 3 0.592241 0.727805 0.5 0 0 0 
838 3 0.653741 0.727805 0.5 0 0 0 
843 3 0.592241 0.738916 0.5 0 0 0 
844 3 0.653741 0.738916 0.5 0 0 0 
849 3 0.622991 0.744471 0.5 0 0 0 
430 2 0.678423 0.723345 0.5 -1.07325 0.61964 0 
432 2 0.678423 0.743375 0.5 -1.07325 -0.61964 0 
853 3 0.561491 0.755582 0.5 0 0 0 
858 3 0.530741 0.761138 0.5 0 0 0 
864 3 0.530741 0.772249 0.5 0 0 0 
854 3 0.622991 0.755582 0.5 0 0 0 
859 3 0.592241 0.761138 0.5 0 0 0 
860 3 0.653741 0.761138 0.5 0 0 0 
865 3 0.592241 0.772249 0.5 0 0 0 
866 3 0.653741 0.772249 0.5 0 0 0 
434 2 0.678423 0.756679 0.5 -1.07325 0.619641 0 
436 2 0.678423 0.776708 0.5 -1.07325 -0.61964 0 
870 3 0.561491 0.777805 0.5 0 0 0 
875 3 0.561491 0.788916 0.5 0 0 0 
880 3 0.530741 0.794471 0.5 0 0 0 
871 3 0.622991 0.777805 0.5 0 0 0 
876 3 0.622991 0.788916 0.5 0 0 0 
881 3 0.592241 0.794471 0.5 0 0 0 
882 3 0.653741 0.794471 0.5 0 0 0 
438 2 0.678423 0.790012 0.5 -1.07325 0.61964 0 
886 3 0.530741 0.805582 0.5 0 0 0 
892 3 0.561491 0.811138 0.5 0 0 0 
897 3 0.561491 0.822249 0.5 0 0 0 
902 3 0.530741 0.827805 0.5 0 0 0 
887 3 0.592241 0.805582 0.5 0 0 0 
888 3 0.653741 0.805582 0.5 0 0 0 
893 3 0.622991 0.811138 0.5 0 0 0 
898 3 0.622991 0.822249 0.5 0 0 0 
903 3 0.592241 0.827805 0.5 0 0 0 
904 3 0.653741 0.827805 0.5 0 0 0 
440 2 0.678423 0.810042 0.5 -1.07325 -0.619641 0 
442 2 0.678423 0.823345 0.5 -1.07325 0.61964 0 
444 2 0.715241 0.829997 0.5 1.30577e-07 1.23924 0 
175 1 0.530741 0.838916 0.5 0 0 0 
184 1 0.561491 0.844471 0.5 0 0 0 
193 1 0.561491 0.855582 0.5 0 0 0 
176 1 0.592241 0.838916 0.5 0 0 0 
177 1 0.653741 0.838916 0.5 0 0 0 
185 1 0.622991 0.844471 0.5 0 0 0 