 # Position data
     904 atoms
  3 atom types    340   124   440
  0.0000000  10.0000000 xlo xhi
  0.0000000  40.0000000 ylo yhi
  0.0000000 127.8253021 zlo zhi
                
 Atoms          
                
       1  1    5.000000   11.389641    0.713521
       2  1    5.000000   10.159640    1.423718
       3  1    5.000000   12.619639    1.423718
       4  1    5.000000   10.159640    2.843985
       5  1    5.000000   12.619639    2.843985
       6  1    5.000000   13.849640    0.713521
       7  1    5.000000   16.309641    0.713521
       8  1    5.000000   15.079640    1.423718
       9  1    5.000000   15.079640    2.843985
      10  1    5.000000   18.769640    0.713521
      11  1    5.000000   17.539639    1.423718
      12  1    5.000000   19.999640    1.423718
      13  1    5.000000   17.539639    2.843985
      14  1    5.000000   19.999640    2.843985
      15  1    5.000000   11.389641    3.554183
      16  1    5.000000   11.389641    4.974449
      17  1    5.000000   10.159640    5.684519
      18  1    5.000000   12.619639    5.684519
      19  1    5.000000   13.849640    3.554183
      20  1    5.000000   16.309641    3.554183
      21  1    5.000000   13.849640    4.974449
      22  1    5.000000   16.309641    4.974449
      23  1    5.000000   15.079640    5.684519
      24  1    5.000000   18.769640    3.554183
      25  1    5.000000   18.769640    4.974449
      26  1    5.000000   17.539639    5.684519
      27  1    5.000000   19.999640    5.684519
      28  1    5.000000   10.159640    7.104786
      29  1    5.000000   12.619639    7.104786
      30  1    5.000000   11.389641    7.814983
      31  1    5.000000   11.389641    9.235250
      32  1    5.000000   10.159640    9.945447
      33  1    5.000000   12.619639    9.945447
      34  1    5.000000   15.079640    7.104786
      35  1    5.000000   13.849640    7.814983
      36  1    5.000000   16.309641    7.814983
      37  1    5.000000   13.849640    9.235250
      38  1    5.000000   16.309641    9.235250
      39  1    5.000000   15.079640    9.945447
      40  1    5.000000   17.539639    7.104786
      41  1    5.000000   19.999640    7.104786
      42  1    5.000000   18.769640    7.814983
      43  1    5.000000   18.769640    9.235250
      44  1    5.000000   17.539639    9.945447
      45  1    5.000000   19.999640    9.945447
      46  1    5.000000   10.159640   11.365715
      47  1    5.000000   12.619639   11.365715
      48  1    5.000000   11.389641   12.075784
      49  1    5.000000   11.389641   13.496051
      50  1    5.000000   15.079640   11.365715
      51  1    5.000000   13.849640   12.075784
      52  1    5.000000   16.309641   12.075784
      53  1    5.000000   13.849640   13.496051
      54  1    5.000000   16.309641   13.496051
      55  1    5.000000   17.539639   11.365715
      56  1    5.000000   19.999640   11.365715
      57  1    5.000000   18.769640   12.075784
      58  1    5.000000   18.769640   13.496051
      59  1    5.000000   10.159640   14.206248
      60  1    5.000000   12.619639   14.206248
      61  1    5.000000   10.159640   15.626515
      62  1    5.000000   12.619639   15.626515
      63  1    5.000000   11.389641   16.336712
      64  1    5.000000   15.079640   14.206248
      65  1    5.000000   15.079640   15.626515
      66  1    5.000000   13.849640   16.336712
      67  1    5.000000   16.309641   16.336712
      68  1    5.000000   17.539639   14.206248
      69  1    5.000000   19.999640   14.206248
      70  1    5.000000   17.539639   15.626515
      71  1    5.000000   19.999640   15.626515
      72  1    5.000000   18.769640   16.336712
      73  1    5.000000   11.389641   17.756979
      74  1    5.000000   10.159640   18.467051
      75  1    5.000000   12.619639   18.467051
      76  1    5.000000   10.159640   19.887316
      77  1    5.000000   12.619639   19.887316
      78  1    5.000000   11.389641   20.597513
      79  1    5.000000   13.849640   17.756979
      80  1    5.000000   16.309641   17.756979
      81  1    5.000000   15.079640   18.467051
      82  1    5.000000   15.079640   19.887316
      83  1    5.000000   13.849640   20.597513
      84  1    5.000000   16.309641   20.597513
      85  1    5.000000   18.769640   17.756979
      86  1    5.000000   17.539639   18.467051
      87  1    5.000000   19.999640   18.467051
      88  1    5.000000   17.539639   19.887316
      89  1    5.000000   19.999640   19.887316
      90  1    5.000000   18.769640   20.597513
      91  1    5.000000   11.389641  107.234695
      92  1    5.000000   10.159640  107.944756
      93  1    5.000000   12.619639  107.944756
      94  1    5.000000   10.159640  109.365028
      95  1    5.000000   12.619639  109.365028
      96  1    5.000000   13.849640  107.234695
      97  1    5.000000   16.309641  107.234695
      98  1    5.000000   15.079640  107.944756
      99  1    5.000000   15.079640  109.365028
     100  1    5.000000   18.769640  107.234695
     101  1    5.000000   17.539639  107.944756
     102  1    5.000000   19.999640  107.944756
     103  1    5.000000   17.539639  109.365028
     104  1    5.000000   19.999640  109.365028
     105  1    5.000000   11.389641  110.075226
     106  1    5.000000   11.389641  111.495491
     107  1    5.000000   10.159640  112.205688
     108  1    5.000000   12.619639  112.205688
     109  1    5.000000   13.849640  110.075226
     110  1    5.000000   16.309641  110.075226
     111  1    5.000000   13.849640  111.495491
     112  1    5.000000   16.309641  111.495491
     113  1    5.000000   15.079640  112.205688
     114  1    5.000000   18.769640  110.075226
     115  1    5.000000   18.769640  111.495491
     116  1    5.000000   17.539639  112.205688
     117  1    5.000000   19.999640  112.205688
     118  1    5.000000   10.159640  113.625961
     119  1    5.000000   12.619639  113.625961
     120  1    5.000000   11.389641  114.336021
     121  1    5.000000   11.389641  115.756294
     122  1    5.000000   10.159640  116.466492
     123  1    5.000000   12.619639  116.466492
     124  1    5.000000   15.079640  113.625961
     125  1    5.000000   13.849640  114.336021
     126  1    5.000000   16.309641  114.336021
     127  1    5.000000   13.849640  115.756294
     128  1    5.000000   16.309641  115.756294
     129  1    5.000000   15.079640  116.466492
     130  1    5.000000   17.539639  113.625961
     131  1    5.000000   19.999640  113.625961
     132  1    5.000000   18.769640  114.336021
     133  1    5.000000   18.769640  115.756294
     134  1    5.000000   17.539639  116.466492
     135  1    5.000000   19.999640  116.466492
     136  1    5.000000   10.159640  117.886757
     137  1    5.000000   12.619639  117.886757
     138  1    5.000000   11.389641  118.596954
     139  1    5.000000   11.389641  120.017227
     140  1    5.000000   15.079640  117.886757
     141  1    5.000000   13.849640  118.596954
     142  1    5.000000   16.309641  118.596954
     143  1    5.000000   13.849640  120.017227
     144  1    5.000000   16.309641  120.017227
     145  1    5.000000   17.539639  117.886757
     146  1    5.000000   19.999640  117.886757
     147  1    5.000000   18.769640  118.596954
     148  1    5.000000   18.769640  120.017227
     149  1    5.000000   10.159640  120.727295
     150  1    5.000000   12.619639  120.727295
     151  1    5.000000   10.159640  122.147560
     152  1    5.000000   12.619639  122.147560
     153  1    5.000000   11.389641  122.857758
     154  1    5.000000   15.079640  120.727295
     155  1    5.000000   15.079640  122.147560
     156  1    5.000000   13.849640  122.857758
     157  1    5.000000   16.309641  122.857758
     158  1    5.000000   17.539639  120.727295
     159  1    5.000000   19.999640  120.727295
     160  1    5.000000   17.539639  122.147560
     161  1    5.000000   19.999640  122.147560
     162  1    5.000000   18.769640  122.857758
     163  1    5.000000   11.389641  124.278015
     164  1    5.000000   10.159640  124.988220
     165  1    5.000000   12.619639  124.988220
     166  1    5.000000   10.159640  126.408485
     167  1    5.000000   12.619639  126.408485
     168  1    5.000000   11.389641  127.118561
     169  1    5.000000   13.849640  124.278015
     170  1    5.000000   16.309641  124.278015
     171  1    5.000000   15.079640  124.988220
     172  1    5.000000   15.079640  126.408485
     173  1    5.000000   13.849640  127.118561
     174  1    5.000000   16.309641  127.118561
     175  1    5.000000   18.769640  124.278015
     176  1    5.000000   17.539639  124.988220
     177  1    5.000000   19.999640  124.988220
     178  1    5.000000   17.539639  126.408485
     179  1    5.000000   19.999640  126.408485
     180  1    5.000000   18.769640  127.118561
     181  1    5.000000   21.229639    0.713521
     182  1    5.000000   22.459641    1.423718
     183  1    5.000000   22.459641    2.843985
     184  1    5.000000   23.689640    0.713521
     185  1    5.000000   26.149639    0.713521
     186  1    5.000000   24.919641    1.423718
     187  1    5.000000   24.919641    2.843985
     188  1    5.000000   28.609640    0.713521
     189  1    5.000000   27.379639    1.423718
     190  1    5.000000   29.839640    1.423718
     191  1    5.000000   27.379639    2.843985
     192  1    5.000000   29.839640    2.843985
     193  1    5.000000   21.229639    3.554183
     194  1    5.000000   21.229639    4.974449
     195  1    5.000000   22.459641    5.684519
     196  1    5.000000   23.689640    3.554183
     197  1    5.000000   26.149639    3.554183
     198  1    5.000000   23.689640    4.974449
     199  1    5.000000   26.149639    4.974449
     200  1    5.000000   24.919641    5.684519
     201  1    5.000000   28.609640    3.554183
     202  1    5.000000   28.609640    4.974449
     203  1    5.000000   27.379639    5.684519
     204  1    5.000000   29.839640    5.684519
     205  1    5.000000   22.459641    7.104786
     206  1    5.000000   21.229639    7.814983
     207  1    5.000000   21.229639    9.235250
     208  1    5.000000   22.459641    9.945447
     209  1    5.000000   24.919641    7.104786
     210  1    5.000000   23.689640    7.814983
     211  1    5.000000   26.149639    7.814983
     212  1    5.000000   23.689640    9.235250
     213  1    5.000000   26.149639    9.235250
     214  1    5.000000   24.919641    9.945447
     215  1    5.000000   27.379639    7.104786
     216  1    5.000000   29.839640    7.104786
     217  1    5.000000   28.609640    7.814983
     218  1    5.000000   28.609640    9.235250
     219  1    5.000000   27.379639    9.945447
     220  1    5.000000   29.839640    9.945447
     221  1    5.000000   22.459641   11.365715
     222  1    5.000000   21.229639   12.075784
     223  1    5.000000   21.229639   13.496051
     224  1    5.000000   24.919641   11.365715
     225  1    5.000000   23.689640   12.075784
     226  1    5.000000   26.149639   12.075784
     227  1    5.000000   23.689640   13.496051
     228  1    5.000000   26.149639   13.496051
     229  1    5.000000   27.379639   11.365715
     230  1    5.000000   29.839640   11.365715
     231  1    5.000000   28.609640   12.075784
     232  1    5.000000   28.609640   13.496051
     233  1    5.000000   22.459641   14.206248
     234  1    5.000000   22.459641   15.626515
     235  1    5.000000   21.229639   16.336712
     236  1    5.000000   24.919641   14.206248
     237  1    5.000000   24.919641   15.626515
     238  1    5.000000   23.689640   16.336712
     239  1    5.000000   26.149639   16.336712
     240  1    5.000000   27.379639   14.206248
     241  1    5.000000   29.839640   14.206248
     242  1    5.000000   27.379639   15.626515
     243  1    5.000000   29.839640   15.626515
     244  1    5.000000   28.609640   16.336712
     245  1    5.000000   21.229639   17.756979
     246  1    5.000000   22.459641   18.467051
     247  1    5.000000   22.459641   19.887316
     248  1    5.000000   21.229639   20.597513
     249  1    5.000000   23.689640   17.756979
     250  1    5.000000   26.149639   17.756979
     251  1    5.000000   24.919641   18.467051
     252  1    5.000000   24.919641   19.887316
     253  1    5.000000   23.689640   20.597513
     254  1    5.000000   26.149639   20.597513
     255  1    5.000000   28.609640   17.756979
     256  1    5.000000   27.379639   18.467051
     257  1    5.000000   29.839640   18.467051
     258  1    5.000000   27.379639   19.887316
     259  1    5.000000   29.839640   19.887316
     260  1    5.000000   28.609640   20.597513
     261  1    5.000000   21.229639  107.234695
     262  1    5.000000   22.459641  107.944756
     263  1    5.000000   22.459641  109.365028
     264  1    5.000000   23.689640  107.234695
     265  1    5.000000   26.149639  107.234695
     266  1    5.000000   24.919641  107.944756
     267  1    5.000000   24.919641  109.365028
     268  1    5.000000   28.609640  107.234695
     269  1    5.000000   27.379639  107.944756
     270  1    5.000000   29.839640  107.944756
     271  1    5.000000   27.379639  109.365028
     272  1    5.000000   29.839640  109.365028
     273  1    5.000000   21.229639  110.075226
     274  1    5.000000   21.229639  111.495491
     275  1    5.000000   22.459641  112.205688
     276  1    5.000000   23.689640  110.075226
     277  1    5.000000   26.149639  110.075226
     278  1    5.000000   23.689640  111.495491
     279  1    5.000000   26.149639  111.495491
     280  1    5.000000   24.919641  112.205688
     281  1    5.000000   28.609640  110.075226
     282  1    5.000000   28.609640  111.495491
     283  1    5.000000   27.379639  112.205688
     284  1    5.000000   29.839640  112.205688
     285  1    5.000000   22.459641  113.625961
     286  1    5.000000   21.229639  114.336021
     287  1    5.000000   21.229639  115.756294
     288  1    5.000000   22.459641  116.466492
     289  1    5.000000   24.919641  113.625961
     290  1    5.000000   23.689640  114.336021
     291  1    5.000000   26.149639  114.336021
     292  1    5.000000   23.689640  115.756294
     293  1    5.000000   26.149639  115.756294
     294  1    5.000000   24.919641  116.466492
     295  1    5.000000   27.379639  113.625961
     296  1    5.000000   29.839640  113.625961
     297  1    5.000000   28.609640  114.336021
     298  1    5.000000   28.609640  115.756294
     299  1    5.000000   27.379639  116.466492
     300  1    5.000000   29.839640  116.466492
     301  1    5.000000   22.459641  117.886757
     302  1    5.000000   21.229639  118.596954
     303  1    5.000000   21.229639  120.017227
     304  1    5.000000   24.919641  117.886757
     305  1    5.000000   23.689640  118.596954
     306  1    5.000000   26.149639  118.596954
     307  1    5.000000   23.689640  120.017227
     308  1    5.000000   26.149639  120.017227
     309  1    5.000000   27.379639  117.886757
     310  1    5.000000   29.839640  117.886757
     311  1    5.000000   28.609640  118.596954
     312  1    5.000000   28.609640  120.017227
     313  1    5.000000   22.459641  120.727295
     314  1    5.000000   22.459641  122.147560
     315  1    5.000000   21.229639  122.857758
     316  1    5.000000   24.919641  120.727295
     317  1    5.000000   24.919641  122.147560
     318  1    5.000000   23.689640  122.857758
     319  1    5.000000   26.149639  122.857758
     320  1    5.000000   27.379639  120.727295
     321  1    5.000000   29.839640  120.727295
     322  1    5.000000   27.379639  122.147560
     323  1    5.000000   29.839640  122.147560
     324  1    5.000000   28.609640  122.857758
     325  1    5.000000   21.229639  124.278015
     326  1    5.000000   22.459641  124.988220
     327  1    5.000000   22.459641  126.408485
     328  1    5.000000   21.229639  127.118561
     329  1    5.000000   23.689640  124.278015
     330  1    5.000000   26.149639  124.278015
     331  1    5.000000   24.919641  124.988220
     332  1    5.000000   24.919641  126.408485
     333  1    5.000000   23.689640  127.118561
     334  1    5.000000   26.149639  127.118561
     335  1    5.000000   28.609640  124.278015
     336  1    5.000000   27.379639  124.988220
     337  1    5.000000   29.839640  124.988220
     338  1    5.000000   27.379639  126.408485
     339  1    5.000000   29.839640  126.408485
     340  1    5.000000   28.609640  127.118561
     341  2    5.000000    9.215560    0.878671
     342  2    5.000000    9.215560    3.389032
     343  2    5.000000    9.215560    5.139472
     344  2    5.000000    9.215560    7.649961
     345  2    5.000000    9.215560    9.400400
     346  2    5.000000    9.215560   11.910762
     347  2    5.000000    9.215560   13.661201
     348  2    5.000000    9.215560   16.171562
     349  2    5.000000    9.215560   17.922001
     350  2    5.000000    9.215560   20.432491
     351  2    5.000000    9.215560  107.399712
     352  2    5.000000    9.215560  109.910072
     353  2    5.000000    9.215560  111.660515
     354  2    5.000000    9.215560  114.171005
     355  2    5.000000    9.215560  115.921440
     356  2    5.000000    9.215560  118.431808
     357  2    5.000000    9.215560  120.182243
     358  2    5.000000    9.215560  122.692604
     359  2    5.000000    9.215560  124.443047
     360  2    5.000000    9.215560  126.953529
     361  2    5.000000   11.389641   21.687609
     362  2    5.000000   12.905560   22.562828
     363  2    5.000000   12.905560   24.313269
     364  2    5.000000   12.905560   26.823757
     365  2    5.000000   12.905560   28.574196
     366  2    5.000000   12.905560   31.084558
     367  2    5.000000   12.905560   32.834995
     368  2    5.000000   12.905560   35.345360
     369  2    5.000000   12.905560   37.095798
     370  2    5.000000   12.905560   39.606285
     371  2    5.000000   12.905560   41.356598
     372  2    5.000000   12.905560   43.867088
     373  2    5.000000   12.905560   45.617527
     374  2    5.000000   12.905560   48.127888
     375  2    5.000000   12.905560   49.878326
     376  2    5.000000   12.905560   52.388691
     377  2    5.000000   12.905560   54.139130
     378  2    5.000000   12.905560   56.649616
     379  2    5.000000   12.905560   58.400059
     380  2    5.000000   12.905560   60.910419
     381  2    5.000000   12.905560   62.660854
     382  2    5.000000   12.905560   65.171219
     383  2    5.000000   12.905560   66.921661
     384  2    5.000000   12.905560   69.432144
     385  2    5.000000   12.905560   71.182587
     386  2    5.000000   12.905560   73.692947
     387  2    5.000000   12.905560   75.443382
     388  2    5.000000   12.905560   77.953751
     389  2    5.000000   12.905560   79.704185
     390  2    5.000000   12.905560   82.214676
     391  2    5.000000   12.905560   83.965118
     392  2    5.000000   12.905560   86.475479
     393  2    5.000000   12.905560   88.225922
     394  2    5.000000   12.905560   90.736282
     395  2    5.000000   12.905560   92.486717
     396  2    5.000000   12.905560   94.997208
     397  2    5.000000   12.905560   96.747650
     398  2    5.000000   12.905560   99.258003
     399  2    5.000000   12.905560  101.008453
     400  2    5.000000   12.905560  103.518806
     401  2    5.000000   12.905560  105.269249
     402  2    5.000000   11.389641  106.144470
     403  2    5.000000   28.609640   21.687609
     404  2    5.000000   27.093719   22.562828
     405  2    5.000000   27.093719   24.313269
     406  2    5.000000   27.093719   26.823629
     407  2    5.000000   27.093719   28.574196
     408  2    5.000000   27.093719   31.084558
     409  2    5.000000   27.093719   32.834995
     410  2    5.000000   27.093719   35.345360
     411  2    5.000000   27.093719   37.095798
     412  2    5.000000   27.093719   39.606159
     413  2    5.000000   27.093719   41.356598
     414  2    5.000000   27.093719   43.867088
     415  2    5.000000   27.093719   45.617527
     416  2    5.000000   27.093719   48.127888
     417  2    5.000000   27.093719   49.878326
     418  2    5.000000   27.093719   52.388691
     419  2    5.000000   27.093719   54.139130
     420  2    5.000000   27.093719   56.649616
     421  2    5.000000   27.093719   58.400059
     422  2    5.000000   27.093719   60.910419
     423  2    5.000000   27.093719   62.660854
     424  2    5.000000   27.093719   65.171219
     425  2    5.000000   27.093719   66.921661
     426  2    5.000000   27.093719   69.432144
     427  2    5.000000   27.093719   71.182587
     428  2    5.000000   27.093719   73.692947
     429  2    5.000000   27.093719   75.443382
     430  2    5.000000   27.093719   77.953751
     431  2    5.000000   27.093719   79.704185
     432  2    5.000000   27.093719   82.214676
     433  2    5.000000   27.093719   83.965118
     434  2    5.000000   27.093719   86.475479
     435  2    5.000000   27.093719   88.225922
     436  2    5.000000   27.093719   90.736282
     437  2    5.000000   27.093719   92.486717
     438  2    5.000000   27.093719   94.997208
     439  2    5.000000   27.093719   96.747650
     440  2    5.000000   27.093719   99.258003
     441  2    5.000000   27.093719  101.008453
     442  2    5.000000   27.093719  103.518806
     443  2    5.000000   27.093719  105.269249
     444  2    5.000000   28.609640  106.144470
     445  2    5.000000   30.783720    0.878671
     446  2    5.000000   30.783720    3.389032
     447  2    5.000000   30.783720    5.139472
     448  2    5.000000   30.783720    7.649961
     449  2    5.000000   30.783720    9.400400
     450  2    5.000000   30.783720   11.910762
     451  2    5.000000   30.783720   13.661201
     452  2    5.000000   30.783720   16.171562
     453  2    5.000000   30.783720   17.922001
     454  2    5.000000   30.783720   20.432491
     455  2    5.000000   30.783720  107.399712
     456  2    5.000000   30.783720  109.910072
     457  2    5.000000   30.783720  111.660515
     458  2    5.000000   30.783720  114.171005
     459  2    5.000000   30.783720  115.921440
     460  2    5.000000   30.783720  118.431808
     461  2    5.000000   30.783720  120.182243
     462  2    5.000000   30.783720  122.692604
     463  2    5.000000   30.783720  124.443047
     464  2    5.000000   30.783720  126.953529
     465  3    5.000000   13.849640   22.017780
     466  3    5.000000   16.309641   22.017780
     467  3    5.000000   15.079640   22.727978
     468  3    5.000000   15.079640   24.148245
     469  3    5.000000   18.769640   22.017780
     470  3    5.000000   17.539639   22.727978
     471  3    5.000000   19.999640   22.727978
     472  3    5.000000   17.539639   24.148245
     473  3    5.000000   19.999640   24.148245
     474  3    5.000000   13.849640   24.858315
     475  3    5.000000   16.309641   24.858315
     476  3    5.000000   13.849640   26.278580
     477  3    5.000000   16.309641   26.278580
     478  3    5.000000   15.079640   26.988777
     479  3    5.000000   18.769640   24.858315
     480  3    5.000000   18.769640   26.278580
     481  3    5.000000   17.539639   26.988777
     482  3    5.000000   19.999640   26.988777
     483  3    5.000000   15.079640   28.409046
     484  3    5.000000   13.849640   29.119244
     485  3    5.000000   16.309641   29.119244
     486  3    5.000000   13.849640   30.539509
     487  3    5.000000   16.309641   30.539509
     488  3    5.000000   15.079640   31.249578
     489  3    5.000000   17.539639   28.409046
     490  3    5.000000   19.999640   28.409046
     491  3    5.000000   18.769640   29.119244
     492  3    5.000000   18.769640   30.539509
     493  3    5.000000   17.539639   31.249578
     494  3    5.000000   19.999640   31.249578
     495  3    5.000000   15.079640   32.669846
     496  3    5.000000   13.849640   33.380043
     497  3    5.000000   16.309641   33.380043
     498  3    5.000000   13.849640   34.800312
     499  3    5.000000   16.309641   34.800312
     500  3    5.000000   17.539639   32.669846
     501  3    5.000000   19.999640   32.669846
     502  3    5.000000   18.769640   33.380043
     503  3    5.000000   18.769640   34.800312
     504  3    5.000000   15.079640   35.510509
     505  3    5.000000   15.079640   36.930775
     506  3    5.000000   13.849640   37.640842
     507  3    5.000000   16.309641   37.640842
     508  3    5.000000   17.539639   35.510509
     509  3    5.000000   19.999640   35.510509
     510  3    5.000000   17.539639   36.930775
     511  3    5.000000   19.999640   36.930775
     512  3    5.000000   18.769640   37.640842
     513  3    5.000000   13.849640   39.061111
     514  3    5.000000   16.309641   39.061111
     515  3    5.000000   15.079640   39.771309
     516  3    5.000000   15.079640   41.191574
     517  3    5.000000   13.849640   41.901775
     518  3    5.000000   16.309641   41.901775
     519  3    5.000000   18.769640   39.061111
     520  3    5.000000   17.539639   39.771309
     521  3    5.000000   19.999640   39.771309
     522  3    5.000000   17.539639   41.191574
     523  3    5.000000   19.999640   41.191574
     524  3    5.000000   18.769640   41.901775
     525  3    5.000000   13.849640   43.322041
     526  3    5.000000   16.309641   43.322041
     527  3    5.000000   15.079640   44.032112
     528  3    5.000000   15.079640   45.452377
     529  3    5.000000   18.769640   43.322041
     530  3    5.000000   17.539639   44.032112
     531  3    5.000000   19.999640   44.032112
     532  3    5.000000   17.539639   45.452377
     533  3    5.000000   19.999640   45.452377
     534  3    5.000000   13.849640   46.162571
     535  3    5.000000   16.309641   46.162571
     536  3    5.000000   13.849640   47.582840
     537  3    5.000000   16.309641   47.582840
     538  3    5.000000   15.079640   48.293037
     539  3    5.000000   18.769640   46.162571
     540  3    5.000000   18.769640   47.582840
     541  3    5.000000   17.539639   48.293037
     542  3    5.000000   19.999640   48.293037
     543  3    5.000000   15.079640   49.713303
     544  3    5.000000   13.849640   50.423374
     545  3    5.000000   16.309641   50.423374
     546  3    5.000000   13.849640   51.843643
     547  3    5.000000   16.309641   51.843643
     548  3    5.000000   15.079640   52.553841
     549  3    5.000000   17.539639   49.713303
     550  3    5.000000   19.999640   49.713303
     551  3    5.000000   18.769640   50.423374
     552  3    5.000000   18.769640   51.843643
     553  3    5.000000   17.539639   52.553841
     554  3    5.000000   19.999640   52.553841
     555  3    5.000000   15.079640   53.974106
     556  3    5.000000   13.849640   54.684303
     557  3    5.000000   16.309641   54.684303
     558  3    5.000000   13.849640   56.104568
     559  3    5.000000   16.309641   56.104568
     560  3    5.000000   17.539639   53.974106
     561  3    5.000000   19.999640   53.974106
     562  3    5.000000   18.769640   54.684303
     563  3    5.000000   18.769640   56.104568
     564  3    5.000000   15.079640   56.814640
     565  3    5.000000   15.079640   58.234905
     566  3    5.000000   13.849640   58.945107
     567  3    5.000000   16.309641   58.945107
     568  3    5.000000   17.539639   56.814640
     569  3    5.000000   19.999640   56.814640
     570  3    5.000000   17.539639   58.234905
     571  3    5.000000   19.999640   58.234905
     572  3    5.000000   18.769640   58.945107
     573  3    5.000000   13.849640   60.365372
     574  3    5.000000   16.309641   60.365372
     575  3    5.000000   15.079640   61.075565
     576  3    5.000000   15.079640   62.495838
     577  3    5.000000   13.849640   63.205906
     578  3    5.000000   16.309641   63.205906
     579  3    5.000000   18.769640   60.365372
     580  3    5.000000   17.539639   61.075565
     581  3    5.000000   19.999640   61.075565
     582  3    5.000000   17.539639   62.495838
     583  3    5.000000   19.999640   62.495838
     584  3    5.000000   18.769640   63.205906
     585  3    5.000000   13.849640   64.626167
     586  3    5.000000   16.309641   64.626167
     587  3    5.000000   15.079640   65.336372
     588  3    5.000000   15.079640   66.756638
     589  3    5.000000   18.769640   64.626167
     590  3    5.000000   17.539639   65.336372
     591  3    5.000000   19.999640   65.336372
     592  3    5.000000   17.539639   66.756638
     593  3    5.000000   19.999640   66.756638
     594  3    5.000000   13.849640   67.466827
     595  3    5.000000   16.309641   67.466827
     596  3    5.000000   13.849640   68.887100
     597  3    5.000000   16.309641   68.887100
     598  3    5.000000   15.079640   69.597176
     599  3    5.000000   18.769640   67.466827
     600  3    5.000000   18.769640   68.887100
     601  3    5.000000   17.539639   69.597176
     602  3    5.000000   19.999640   69.597176
     603  3    5.000000   15.079640   71.017433
     604  3    5.000000   13.849640   71.727631
     605  3    5.000000   16.309641   71.727631
     606  3    5.000000   13.849640   73.147903
     607  3    5.000000   16.309641   73.147903
     608  3    5.000000   15.079640   73.858093
     609  3    5.000000   17.539639   71.017433
     610  3    5.000000   19.999640   71.017433
     611  3    5.000000   18.769640   71.727631
     612  3    5.000000   18.769640   73.147903
     613  3    5.000000   17.539639   73.858093
     614  3    5.000000   19.999640   73.858093
     615  3    5.000000   15.079640   75.278366
     616  3    5.000000   13.849640   75.988434
     617  3    5.000000   16.309641   75.988434
     618  3    5.000000   13.849640   77.408699
     619  3    5.000000   16.309641   77.408699
     620  3    5.000000   17.539639   75.278366