 # Position data
 980 atoms
 7 atom types 34 4 340 124 440 34 4
 0.000000  10.000000 xlo xhi
 0.000000  40.000000 xlo xhi
 0.000000 136.346909 xlo xhi
