 # Position data (not sorted)
1408 atoms
3 atom types 820 148 440
    0.000000   10.000000 xlo xhi
    0.000000   70.000000 ylo yhi
    0.000000  127.825302 zlo zhi
 
 Atoms
 
       1  1    5.000000   11.278120    0.713573
       2  1    5.000000   10.048150    1.423718
       3  1    5.000000   10.048150    2.843998
       4  1    5.000000   11.278120    3.554132
       5  1    5.000000   11.278120    4.974411
       6  1    5.000000   10.048150    5.684557
       7  1    5.000000   10.048150    7.104837
       8  1    5.000000   11.278120    7.814983
       9  1    5.000000   11.278120    9.235263
      10  1    5.000000   10.048150    9.945396
      11  1    5.000000   10.048150   11.365676
      12  1    5.000000   11.278120   12.075822
      13  1    5.000000   11.278120   13.496051
      14  1    5.000000   10.048150   14.206248
      15  1    5.000000   10.048150   15.626515
      16  1    5.000000   11.278120   16.336712
      17  1    5.000000   11.278120   17.756979
      18  1    5.000000   10.048150   18.467051
      19  1    5.000000   10.048150   19.887316
      20  1    5.000000   11.278120   20.597513
      21  1    5.000000   11.278120  107.234695
      22  1    5.000000   10.048150  107.944756
      23  1    5.000000   10.048150  109.365028
      24  1    5.000000   11.278120  110.075226
      25  1    5.000000   11.278120  111.495491
      26  1    5.000000   10.048150  112.205688
      27  1    5.000000   10.048150  113.625961
      28  1    5.000000   11.278120  114.336021
      29  1    5.000000   11.278120  115.756294
      30  1    5.000000   10.048150  116.466492
      31  1    5.000000   10.048150  117.886757
      32  1    5.000000   11.278120  118.596954
      33  1    5.000000   11.278120  120.017227
      34  1    5.000000   10.048150  120.727295
      35  1    5.000000   10.048150  122.147560
      36  1    5.000000   11.278120  122.857758
      37  1    5.000000   11.278120  124.278015
      38  1    5.000000   10.048150  124.988220
      39  1    5.000000   10.048150  126.408485
      40  1    5.000000   11.278120  127.118561
      41  1    5.000000   13.738131    0.713573
      42  1    5.000000   12.508090    1.423718
      43  1    5.000000   14.968100    1.423718
      44  1    5.000000   12.508090    2.843998
      45  1    5.000000   14.968100    2.843998
      46  1    5.000000   16.198139    0.713573
      47  1    5.000000   18.658150    0.713573
      48  1    5.000000   17.428110    1.423718
      49  1    5.000000   17.428110    2.843998
      50  1    5.000000   21.118090    0.713573
      51  1    5.000000   19.888121    1.423718
      52  1    5.000000   22.348129    1.423718
      53  1    5.000000   19.888121    2.843998
      54  1    5.000000   22.348129    2.843998
      55  1    5.000000   13.738131    3.554132
      56  1    5.000000   13.738131    4.974411
      57  1    5.000000   12.508090    5.684557
      58  1    5.000000   14.968100    5.684557
      59  1    5.000000   16.198139    3.554132
      60  1    5.000000   18.658150    3.554132
      61  1    5.000000   16.198139    4.974411
      62  1    5.000000   18.658150    4.974411
      63  1    5.000000   17.428110    5.684557
      64  1    5.000000   21.118090    3.554132
      65  1    5.000000   21.118090    4.974411
      66  1    5.000000   19.888121    5.684557
      67  1    5.000000   22.348129    5.684557
      68  1    5.000000   12.508090    7.104837
      69  1    5.000000   14.968100    7.104837
      70  1    5.000000   13.738131    7.814983
      71  1    5.000000   13.738131    9.235263
      72  1    5.000000   12.508090    9.945396
      73  1    5.000000   14.968100    9.945396
      74  1    5.000000   17.428110    7.104837
      75  1    5.000000   16.198139    7.814983
      76  1    5.000000   18.658150    7.814983
      77  1    5.000000   16.198139    9.235263
      78  1    5.000000   18.658150    9.235263
      79  1    5.000000   17.428110    9.945396
      80  1    5.000000   19.888121    7.104837
      81  1    5.000000   22.348129    7.104837
      82  1    5.000000   21.118090    7.814983
      83  1    5.000000   21.118090    9.235263
      84  1    5.000000   19.888121    9.945396
      85  1    5.000000   22.348129    9.945396
      86  1    5.000000   12.508090   11.365676
      87  1    5.000000   14.968100   11.365676
      88  1    5.000000   13.738131   12.075822
      89  1    5.000000   13.738131   13.496051
      90  1    5.000000   17.428110   11.365676
      91  1    5.000000   16.198139   12.075822
      92  1    5.000000   18.658150   12.075822
      93  1    5.000000   16.198139   13.496051
      94  1    5.000000   18.658150   13.496051
      95  1    5.000000   19.888121   11.365676
      96  1    5.000000   22.348129   11.365676
      97  1    5.000000   21.118090   12.075822
      98  1    5.000000   21.118090   13.496051
      99  1    5.000000   12.508090   14.206248
     100  1    5.000000   14.968100   14.206248
     101  1    5.000000   12.508090   15.626515
     102  1    5.000000   14.968100   15.626515
     103  1    5.000000   13.738131   16.336712
     104  1    5.000000   17.428110   14.206248
     105  1    5.000000   17.428110   15.626515
     106  1    5.000000   16.198139   16.336712
     107  1    5.000000   18.658150   16.336712
     108  1    5.000000   19.888121   14.206248
     109  1    5.000000   22.348129   14.206248
     110  1    5.000000   19.888121   15.626515
     111  1    5.000000   22.348129   15.626515
     112  1    5.000000   21.118090   16.336712
     113  1    5.000000   13.738131   17.756979
     114  1    5.000000   12.508090   18.467051
     115  1    5.000000   14.968100   18.467051
     116  1    5.000000   12.508090   19.887316
     117  1    5.000000   14.968100   19.887316
     118  1    5.000000   13.738131   20.597513
     119  1    5.000000   16.198139   17.756979
     120  1    5.000000   18.658150   17.756979
     121  1    5.000000   17.428110   18.467051
     122  1    5.000000   17.428110   19.887316
     123  1    5.000000   16.198139   20.597513
     124  1    5.000000   18.658150   20.597513
     125  1    5.000000   21.118090   17.756979
     126  1    5.000000   19.888121   18.467051
     127  1    5.000000   22.348129   18.467051
     128  1    5.000000   19.888121   19.887316
     129  1    5.000000   22.348129   19.887316
     130  1    5.000000   21.118090   20.597513
     131  1    5.000000   13.738131  107.234695
     132  1    5.000000   12.508090  107.944756
     133  1    5.000000   14.968100  107.944756
     134  1    5.000000   12.508090  109.365028
     135  1    5.000000   14.968100  109.365028
     136  1    5.000000   16.198139  107.234695
     137  1    5.000000   18.658150  107.234695
     138  1    5.000000   17.428110  107.944756
     139  1    5.000000   17.428110  109.365028
     140  1    5.000000   21.118090  107.234695
     141  1    5.000000   19.888121  107.944756
     142  1    5.000000   22.348129  107.944756
     143  1    5.000000   19.888121  109.365028
     144  1    5.000000   22.348129  109.365028
     145  1    5.000000   13.738131  110.075226
     146  1    5.000000   13.738131  111.495491
     147  1    5.000000   12.508090  112.205688
     148  1    5.000000   14.968100  112.205688
     149  1    5.000000   16.198139  110.075226
     150  1    5.000000   18.658150  110.075226
     151  1    5.000000   16.198139  111.495491
     152  1    5.000000   18.658150  111.495491
     153  1    5.000000   17.428110  112.205688
     154  1    5.000000   21.118090  110.075226
     155  1    5.000000   21.118090  111.495491
     156  1    5.000000   19.888121  112.205688
     157  1    5.000000   22.348129  112.205688
     158  1    5.000000   12.508090  113.625961
     159  1    5.000000   14.968100  113.625961
     160  1    5.000000   13.738131  114.336021
     161  1    5.000000   13.738131  115.756294
     162  1    5.000000   12.508090  116.466492
     163  1    5.000000   14.968100  116.466492
     164  1    5.000000   17.428110  113.625961
     165  1    5.000000   16.198139  114.336021
     166  1    5.000000   18.658150  114.336021
     167  1    5.000000   16.198139  115.756294
     168  1    5.000000   18.658150  115.756294
     169  1    5.000000   17.428110  116.466492
     170  1    5.000000   19.888121  113.625961
     171  1    5.000000   22.348129  113.625961
     172  1    5.000000   21.118090  114.336021
     173  1    5.000000   21.118090  115.756294
     174  1    5.000000   19.888121  116.466492
     175  1    5.000000   22.348129  116.466492
     176  1    5.000000   12.508090  117.886757
     177  1    5.000000   14.968100  117.886757
     178  1    5.000000   13.738131  118.596954
     179  1    5.000000   13.738131  120.017227
     180  1    5.000000   17.428110  117.886757
     181  1    5.000000   16.198139  118.596954
     182  1    5.000000   18.658150  118.596954
     183  1    5.000000   16.198139  120.017227
     184  1    5.000000   18.658150  120.017227
     185  1    5.000000   19.888121  117.886757
     186  1    5.000000   22.348129  117.886757
     187  1    5.000000   21.118090  118.596954
     188  1    5.000000   21.118090  120.017227
     189  1    5.000000   12.508090  120.727295
     190  1    5.000000   14.968100  120.727295
     191  1    5.000000   12.508090  122.147560
     192  1    5.000000   14.968100  122.147560
     193  1    5.000000   13.738131  122.857758
     194  1    5.000000   17.428110  120.727295
     195  1    5.000000   17.428110  122.147560
     196  1    5.000000   16.198139  122.857758
     197  1    5.000000   18.658150  122.857758
     198  1    5.000000   19.888121  120.727295
     199  1    5.000000   22.348129  120.727295
     200  1    5.000000   19.888121  122.147560
     201  1    5.000000   22.348129  122.147560
     202  1    5.000000   21.118090  122.857758
     203  1    5.000000   13.738131  124.278015
     204  1    5.000000   12.508090  124.988220
     205  1    5.000000   14.968100  124.988220
     206  1    5.000000   12.508090  126.408485
     207  1    5.000000   14.968100  126.408485
     208  1    5.000000   13.738131  127.118561
     209  1    5.000000   16.198139  124.278015
     210  1    5.000000   18.658150  124.278015
     211  1    5.000000   17.428110  124.988220
     212  1    5.000000   17.428110  126.408485
     213  1    5.000000   16.198139  127.118561
     214  1    5.000000   18.658150  127.118561
     215  1    5.000000   21.118090  124.278015
     216  1    5.000000   19.888121  124.988220
     217  1    5.000000   22.348129  124.988220
     218  1    5.000000   19.888121  126.408485
     219  1    5.000000   22.348129  126.408485
     220  1    5.000000   21.118090  127.118561
     221  1    5.000000   23.578100    0.713573
     222  1    5.000000   26.038111    0.713573
     223  1    5.000000   24.808140    1.423718
     224  1    5.000000   24.808140    2.843998
     225  1    5.000000   28.498119    0.713573
     226  1    5.000000   30.958132    0.713573
     227  1    5.000000   27.268082    1.423718
     228  1    5.000000   29.728090    1.423718
     229  1    5.000000   27.268082    2.843998
     230  1    5.000000   29.728090    2.843998
     231  1    5.000000   33.418140    0.713573
     232  1    5.000000   32.188099    1.423718
     233  1    5.000000   34.648109    1.423718
     234  1    5.000000   32.188099    2.843998
     235  1    5.000000   34.648109    2.843998
     236  1    5.000000   23.578100    3.554132
     237  1    5.000000   26.038111    3.554132
     238  1    5.000000   23.578100    4.974411
     239  1    5.000000   26.038111    4.974411
     240  1    5.000000   24.808140    5.684557
     241  1    5.000000   28.498119    3.554132
     242  1    5.000000   30.958132    3.554132
     243  1    5.000000   28.498119    4.974411
     244  1    5.000000   30.958132    4.974411
     245  1    5.000000   27.268082    5.684557
     246  1    5.000000   29.728090    5.684557
     247  1    5.000000   33.418140    3.554132
     248  1    5.000000   33.418140    4.974411
     249  1    5.000000   32.188099    5.684557
     250  1    5.000000   34.648109    5.684557
     251  1    5.000000   24.808140    7.104837
     252  1    5.000000   23.578100    7.814983
     253  1    5.000000   26.038111    7.814983
     254  1    5.000000   23.578100    9.235263
     255  1    5.000000   26.038111    9.235263
     256  1    5.000000   24.808140    9.945396
     257  1    5.000000   27.268082    7.104837
     258  1    5.000000   29.728090    7.104837
     259  1    5.000000   28.498119    7.814983
     260  1    5.000000   30.958132    7.814983
     261  1    5.000000   28.498119    9.235263
     262  1    5.000000   30.958132    9.235263
     263  1    5.000000   27.268082    9.945396
     264  1    5.000000   29.728090    9.945396
     265  1    5.000000   32.188099    7.104837
     266  1    5.000000   34.648109    7.104837
     267  1    5.000000   33.418140    7.814983
     268  1    5.000000   33.418140    9.235263
     269  1    5.000000   32.188099    9.945396
     270  1    5.000000   34.648109    9.945396
     271  1    5.000000   24.808140   11.365676
     272  1    5.000000   23.578100   12.075822
     273  1    5.000000   26.038111   12.075822
     274  1    5.000000   23.578100   13.496051
     275  1    5.000000   26.038111   13.496051
     276  1    5.000000   27.268082   11.365676
     277  1    5.000000   29.728090   11.365676
     278  1    5.000000   28.498119   12.075822
     279  1    5.000000   30.958132   12.075822
     280  1    5.000000   28.498119   13.496051
     281  1    5.000000   30.958132   13.496051
     282  1    5.000000   32.188099   11.365676
     283  1    5.000000   34.648109   11.365676
     284  1    5.000000   33.418140   12.075822
     285  1    5.000000   33.418140   13.496051
     286  1    5.000000   24.808140   14.206248
     287  1    5.000000   24.808140   15.626515
     288  1    5.000000   23.578100   16.336712
     289  1    5.000000   26.038111   16.336712
     290  1    5.000000   27.268082   14.206248
     291  1    5.000000   29.728090   14.206248
     292  1    5.000000   27.268082   15.626515
     293  1    5.000000   29.728090   15.626515
     294  1    5.000000   28.498119   16.336712
     295  1    5.000000   30.958132   16.336712
     296  1    5.000000   32.188099   14.206248
     297  1    5.000000   34.648109   14.206248
     298  1    5.000000   32.188099   15.626515
     299  1    5.000000   34.648109   15.626515
     300  1    5.000000   33.418140   16.336712
     301  1    5.000000   23.578100   17.756979
     302  1    5.000000   26.038111   17.756979
     303  1    5.000000   24.808140   18.467051
     304  1    5.000000   24.808140   19.887316
     305  1    5.000000   23.578100   20.597513
     306  1    5.000000   26.038111   20.597513
     307  1    5.000000   28.498119   17.756979
     308  1    5.000000   30.958132   17.756979
     309  1    5.000000   27.268082   18.467051
     310  1    5.000000   29.728090   18.467051
     311  1    5.000000   27.268082   19.887316
     312  1    5.000000   29.728090   19.887316
     313  1    5.000000   28.498119   20.597513
     314  1    5.000000   30.958132   20.597513
     315  1    5.000000   33.418140   17.756979
     316  1    5.000000   32.188099   18.467051
     317  1    5.000000   34.648109   18.467051
     318  1    5.000000   32.188099   19.887316
     319  1    5.000000   34.648109   19.887316
     320  1    5.000000   33.418140   20.597513
     321  1    5.000000   23.578100  107.234695
     322  1    5.000000   26.038111  107.234695
     323  1    5.000000   24.808140  107.944756
     324  1    5.000000   24.808140  109.365028
     325  1    5.000000   28.498119  107.234695
     326  1    5.000000   30.958132  107.234695
     327  1    5.000000   27.268082  107.944756
     328  1    5.000000   29.728090  107.944756
     329  1    5.000000   27.268082  109.365028
     330  1    5.000000   29.728090  109.365028
     331  1    5.000000   33.418140  107.234695
     332  1    5.000000   32.188099  107.944756
     333  1    5.000000   34.648109  107.944756
     334  1    5.000000   32.188099  109.365028
     335  1    5.000000   34.648109  109.365028
     336  1    5.000000   23.578100  110.075226
     337  1    5.000000   26.038111  110.075226
     338  1    5.000000   23.578100  111.495491
     339  1    5.000000   26.038111  111.495491
     340  1    5.000000   24.808140  112.205688
     341  1    5.000000   28.498119  110.075226
     342  1    5.000000   30.958132  110.075226
     343  1    5.000000   28.498119  111.495491
     344  1    5.000000   30.958132  111.495491
     345  1    5.000000   27.268082  112.205688
     346  1    5.000000   29.728090  112.205688
     347  1    5.000000   33.418140  110.075226
     348  1    5.000000   33.418140  111.495491
     349  1    5.000000   32.188099  112.205688
     350  1    5.000000   34.648109  112.205688
     351  1    5.000000   24.808140  113.625961
     352  1    5.000000   23.578100  114.336021
     353  1    5.000000   26.038111  114.336021
     354  1    5.000000   23.578100  115.756294
     355  1    5.000000   26.038111  115.756294
     356  1    5.000000   24.808140  116.466492
     357  1    5.000000   27.268082  113.625961
     358  1    5.000000   29.728090  113.625961
     359  1    5.000000   28.498119  114.336021
     360  1    5.000000   30.958132  114.336021
     361  1    5.000000   28.498119  115.756294
     362  1    5.000000   30.958132  115.756294
     363  1    5.000000   27.268082  116.466492
     364  1    5.000000   29.728090  116.466492
     365  1    5.000000   32.188099  113.625961
     366  1    5.000000   34.648109  113.625961
     367  1    5.000000   33.418140  114.336021
     368  1    5.000000   33.418140  115.756294
     369  1    5.000000   32.188099  116.466492
     370  1    5.000000   34.648109  116.466492
     371  1    5.000000   24.808140  117.886757
     372  1    5.000000   23.578100  118.596954
     373  1    5.000000   26.038111  118.596954
     374  1    5.000000   23.578100  120.017227
     375  1    5.000000   26.038111  120.017227
     376  1    5.000000   27.268082  117.886757
     377  1    5.000000   29.728090  117.886757
     378  1    5.000000   28.498119  118.596954
     379  1    5.000000   30.958132  118.596954
     380  1    5.000000   28.498119  120.017227
     381  1    5.000000   30.958132  120.017227
     382  1    5.000000   32.188099  117.886757
     383  1    5.000000   34.648109  117.886757
     384  1    5.000000   33.418140  118.596954
     385  1    5.000000   33.418140  120.017227
     386  1    5.000000   24.808140  120.727295
     387  1    5.000000   24.808140  122.147560
     388  1    5.000000   23.578100  122.857758
     389  1    5.000000   26.038111  122.857758
     390  1    5.000000   27.268082  120.727295
     391  1    5.000000   29.728090  120.727295
     392  1    5.000000   27.268082  122.147560
     393  1    5.000000   29.728090  122.147560
     394  1    5.000000   28.498119  122.857758
     395  1    5.000000   30.958132  122.857758
     396  1    5.000000   32.188099  120.727295
     397  1    5.000000   34.648109  120.727295
     398  1    5.000000   32.188099  122.147560
     399  1    5.000000   34.648109  122.147560
     400  1    5.000000   33.418140  122.857758
     401  1    5.000000   23.578100  124.278015
     402  1    5.000000   26.038111  124.278015
     403  1    5.000000   24.808140  124.988220
     404  1    5.000000   24.808140  126.408485
     405  1    5.000000   23.578100  127.118561
     406  1    5.000000   26.038111  127.118561
     407  1    5.000000   28.498119  124.278015
     408  1    5.000000   30.958132  124.278015
     409  1    5.000000   27.268082  124.988220
     410  1    5.000000   29.728090  124.988220
     411  1    5.000000   27.268082  126.408485
     412  1    5.000000   29.728090  126.408485
     413  1    5.000000   28.498119  127.118561
     414  1    5.000000   30.958132  127.118561
     415  1    5.000000   33.418140  124.278015
     416  1    5.000000   32.188099  124.988220
     417  1    5.000000   34.648109  124.988220
     418  1    5.000000   32.188099  126.408485
     419  1    5.000000   34.648109  126.408485
     420  1    5.000000   33.418140  127.118561
     421  1    5.000000   35.878078    0.713573
     422  1    5.000000   38.338089    0.713573
     423  1    5.000000   37.108120    1.423718
     424  1    5.000000   37.108120    2.843998
     425  1    5.000000   40.798100    0.713573
     426  1    5.000000   39.568130    1.423718
     427  1    5.000000   42.028141    1.423718
     428  1    5.000000   39.568130    2.843998
     429  1    5.000000   42.028141    2.843998
     430  1    5.000000   43.258114    0.713573
     431  1    5.000000   45.718121    0.713573
     432  1    5.000000   44.488079    1.423718
     433  1    5.000000   44.488079    2.843998
     434  1    5.000000   35.878078    3.554132
     435  1    5.000000   38.338089    3.554132
     436  1    5.000000   35.878078    4.974411
     437  1    5.000000   38.338089    4.974411
     438  1    5.000000   37.108120    5.684557
     439  1    5.000000   40.798100    3.554132
     440  1    5.000000   40.798100    4.974411
     441  1    5.000000   39.568130    5.684557
     442  1    5.000000   42.028141    5.684557
     443  1    5.000000   43.258114    3.554132
     444  1    5.000000   45.718121    3.554132
     445  1    5.000000   43.258114    4.974411
     446  1    5.000000   45.718121    4.974411
     447  1    5.000000   44.488079    5.684557
     448  1    5.000000   37.108120    7.104837
     449  1    5.000000   35.878078    7.814983
     450  1    5.000000   38.338089    7.814983
     451  1    5.000000   35.878078    9.235263
     452  1    5.000000   38.338089    9.235263
     453  1    5.000000   37.108120    9.945396
     454  1    5.000000   39.568130    7.104837
     455  1    5.000000   42.028141    7.104837
     456  1    5.000000   40.798100    7.814983
     457  1    5.000000   40.798100    9.235263
     458  1    5.000000   39.568130    9.945396
     459  1    5.000000   42.028141    9.945396
     460  1    5.000000   44.488079    7.104837
     461  1    5.000000   43.258114    7.814983
     462  1    5.000000   45.718121    7.814983
     463  1    5.000000   43.258114    9.235263
     464  1    5.000000   45.718121    9.235263
     465  1    5.000000   44.488079    9.945396
     466  1    5.000000   37.108120   11.365676
     467  1    5.000000   35.878078   12.075822
     468  1    5.000000   38.338089   12.075822
     469  1    5.000000   35.878078   13.496051
     470  1    5.000000   38.338089   13.496051
     471  1    5.000000   39.568130   11.365676
     472  1    5.000000   42.028141   11.365676
     473  1    5.000000   40.798100   12.075822
     474  1    5.000000   40.798100   13.496051
     475  1    5.000000   44.488079   11.365676
     476  1    5.000000   43.258114   12.075822
     477  1    5.000000   45.718121   12.075822
     478  1    5.000000   43.258114   13.496051
     479  1    5.000000   45.718121   13.496051
     480  1    5.000000   37.108120   14.206248
     481  1    5.000000   37.108120   15.626515
     482  1    5.000000   35.878078   16.336712
     483  1    5.000000   38.338089   16.336712
     484  1    5.000000   39.568130   14.206248
     485  1    5.000000   42.028141   14.206248
     486  1    5.000000   39.568130   15.626515
     487  1    5.000000   42.028141   15.626515
     488  1    5.000000   40.798100   16.336712
     489  1    5.000000   44.488079   14.206248
     490  1    5.000000   44.488079   15.626515
     491  1    5.000000   43.258114   16.336712
     492  1    5.000000   45.718121   16.336712
     493  1    5.000000   35.878078   17.756979
     494  1    5.000000   38.338089   17.756979
     495  1    5.000000   37.108120   18.467051
     496  1    5.000000   37.108120   19.887316
     497  1    5.000000   35.878078   20.597513
     498  1    5.000000   38.338089   20.597513
     499  1    5.000000   40.798100   17.756979
     500  1    5.000000   39.568130   18.467051
     501  1    5.000000   42.028141   18.467051
     502  1    5.000000   39.568130   19.887316
     503  1    5.000000   42.028141   19.887316
     504  1    5.000000   40.798100   20.597513
     505  1    5.000000   43.258114   17.756979
     506  1    5.000000   45.718121   17.756979
     507  1    5.000000   44.488079   18.467051
     508  1    5.000000   44.488079   19.887316
     509  1    5.000000   43.258114   20.597513
     510  1    5.000000   45.718121   20.597513
     511  1    5.000000   35.878078  107.234695
     512  1    5.000000   38.338089  107.234695
     513  1    5.000000   37.108120  107.944756
     514  1    5.000000   37.108120  109.365028
     515  1    5.000000   40.798100  107.234695
     516  1    5.000000   39.568130  107.944756
     517  1    5.000000   42.028141  107.944756
     518  1    5.000000   39.568130  109.365028
     519  1    5.000000   42.028141  109.365028
     520  1    5.000000   43.258114  107.234695
     521  1    5.000000   45.718121  107.234695
     522  1    5.000000   44.488079  107.944756
     523  1    5.000000   44.488079  109.365028
     524  1    5.000000   35.878078  110.075226
     525  1    5.000000   38.338089  110.075226
     526  1    5.000000   35.878078  111.495491
     527  1    5.000000   38.338089  111.495491
     528  1    5.000000   37.108120  112.205688
     529  1    5.000000   40.798100  110.075226
     530  1    5.000000   40.798100  111.495491
     531  1    5.000000   39.568130  112.205688
     532  1    5.000000   42.028141  112.205688
     533  1    5.000000   43.258114  110.075226
     534  1    5.000000   45.718121  110.075226
     535  1    5.000000   43.258114  111.495491
     536  1    5.000000   45.718121  111.495491
     537  1    5.000000   44.488079  112.205688
     538  1    5.000000   37.108120  113.625961
     539  1    5.000000   35.878078  114.336021
     540  1    5.000000   38.338089  114.336021
     541  1    5.000000   35.878078  115.756294
     542  1    5.000000   38.338089  115.756294
     543  1    5.000000   37.108120  116.466492
     544  1    5.000000   39.568130  113.625961
     545  1    5.000000   42.028141  113.625961
     546  1    5.000000   40.798100  114.336021
     547  1    5.000000   40.798100  115.756294
     548  1    5.000000   39.568130  116.466492
     549  1    5.000000   42.028141  116.466492
     550  1    5.000000   44.488079  113.625961
     551  1    5.000000   43.258114  114.336021
     552  1    5.000000   45.718121  114.336021
     553  1    5.000000   43.258114  115.756294
     554  1    5.000000   45.718121  115.756294
     555  1    5.000000   44.488079  116.466492
     556  1    5.000000   37.108120  117.886757
     557  1    5.000000   35.878078  118.596954
     558  1    5.000000   38.338089  118.596954
     559  1    5.000000   35.878078  120.017227
     560  1    5.000000   38.338089  120.017227
     561  1    5.000000   39.568130  117.886757
     562  1    5.000000   42.028141  117.886757
     563  1    5.000000   40.798100  118.596954
     564  1    5.000000   40.798100  120.017227
     565  1    5.000000   44.488079  117.886757
     566  1    5.000000   43.258114  118.596954
     567  1    5.000000   45.718121  118.596954
     568  1    5.000000   43.258114  120.017227
     569  1    5.000000   45.718121  120.017227
     570  1    5.000000   37.108120  120.727295
     571  1    5.000000   37.108120  122.147560
     572  1    5.000000   35.878078  122.857758
     573  1    5.000000   38.338089  122.857758
     574  1    5.000000   39.568130  120.727295
     575  1    5.000000   42.028141  120.727295
     576  1    5.000000   39.568130  122.147560
     577  1    5.000000   42.028141  122.147560
     578  1    5.000000   40.798100  122.857758
     579  1    5.000000   44.488079  120.727295
     580  1    5.000000   44.488079  122.147560
     581  1    5.000000   43.258114  122.857758
     582  1    5.000000   45.718121  122.857758
     583  1    5.000000   35.878078  124.278015
     584  1    5.000000   38.338089  124.278015
     585  1    5.000000   37.108120  124.988220
     586  1    5.000000   37.108120  126.408485
     587  1    5.000000   35.878078  127.118561
     588  1    5.000000   38.338089  127.118561
     589  1    5.000000   40.798100  124.278015
     590  1    5.000000   39.568130  124.988220
     591  1    5.000000   42.028141  124.988220
     592  1    5.000000   39.568130  126.408485
     593  1    5.000000   42.028141  126.408485
     594  1    5.000000   40.798100  127.118561
     595  1    5.000000   43.258114  124.278015
     596  1    5.000000   45.718121  124.278015
     597  1    5.000000   44.488079  124.988220
     598  1    5.000000   44.488079  126.408485
     599  1    5.000000   43.258114  127.118561
     600  1    5.000000   45.718121  127.118561
     601  1    5.000000   48.178131    0.713573
     602  1    5.000000   46.948090    1.423718
     603  1    5.000000   49.408100    1.423718
     604  1    5.000000   46.948090    2.843998
     605  1    5.000000   49.408100    2.843998
     606  1    5.000000   50.638069    0.713573
     607  1    5.000000   53.098083    0.713573
     608  1    5.000000   51.868111    1.423718
     609  1    5.000000   54.328121    1.423718
     610  1    5.000000   51.868111    2.843998
     611  1    5.000000   54.328121    2.843998
     612  1    5.000000   55.558090    0.713573
     613  1    5.000000   58.018101    0.713573
     614  1    5.000000   56.788128    1.423718
     615  1    5.000000   56.788128    2.843998
     616  1    5.000000   48.178131    3.554132
     617  1    5.000000   48.178131    4.974411
     618  1    5.000000   46.948090    5.684557
     619  1    5.000000   49.408100    5.684557
     620  1    5.000000   50.638069    3.554132
     621  1    5.000000   53.098083    3.554132