  Position data
  
    1128 atoms
  
  3 atom types
  
 0.0  40.0000000 xlo xhi
 0.0 170.4337006 ylo yhi
 0.0  10.0000000 zlo zhi
  
  Masses
  
  1 10.0000000 C 
  2 10.0000000 H 
  3 10.0000000 C 
  
  Atoms
  
      1  1  11.3896503   0.7135733   5.0000000
      2  1  13.8496494   0.7135733   5.0000000
      3  1  16.3096485   0.7135733   5.0000000
      4  1  18.7696476   0.7135733   5.0000000
      5  1  21.2296467   0.7135733   5.0000000
      6  1  23.6896458   0.7135733   5.0000000
      7  1  26.1496429   0.7135733   5.0000000
      8  1  28.6096420   0.7135733   5.0000000
      9  1  10.1596508   1.4237138   5.0000000
     10  1  12.6196499   1.4237138   5.0000000
     11  1  15.0796490   1.4237138   5.0000000
     12  1  17.5396481   1.4237138   5.0000000
     13  1  19.9996471   1.4237138   5.0000000
     14  1  22.4596462   1.4237138   5.0000000
     15  1  24.9196453   1.4237138   5.0000000
     16  1  27.3796425   1.4237138   5.0000000
     17  1  29.8396416   1.4237138   5.0000000
     18  1  10.1596508   2.8439949   5.0000000
     19  1  12.6196499   2.8439949   5.0000000
     20  1  15.0796490   2.8439949   5.0000000
     21  1  17.5396481   2.8439949   5.0000000
     22  1  19.9996471   2.8439949   5.0000000
     23  1  22.4596462   2.8439949   5.0000000
     24  1  24.9196453   2.8439949   5.0000000
     25  1  27.3796425   2.8439949   5.0000000
     26  1  29.8396416   2.8439949   5.0000000
     27  1  11.3896503   3.5541353   5.0000000
     28  1  13.8496494   3.5541353   5.0000000
     29  1  16.3096485   3.5541353   5.0000000
     30  1  18.7696476   3.5541353   5.0000000
     31  1  21.2296467   3.5541353   5.0000000
     32  1  23.6896458   3.5541353   5.0000000
     33  1  26.1496429   3.5541353   5.0000000
     34  1  28.6096420   3.5541353   5.0000000
     35  1  11.3896503   4.9744163   5.0000000
     36  1  13.8496494   4.9744163   5.0000000
     37  1  16.3096485   4.9744163   5.0000000
     38  1  18.7696476   4.9744163   5.0000000
     39  1  21.2296467   4.9744163   5.0000000
     40  1  23.6896458   4.9744163   5.0000000
     41  1  26.1496429   4.9744163   5.0000000
     42  1  28.6096420   4.9744163   5.0000000
     43  1  10.1596508   5.6845570   5.0000000
     44  1  12.6196499   5.6845570   5.0000000
     45  1  15.0796490   5.6845570   5.0000000
     46  1  17.5396481   5.6845570   5.0000000
     47  1  19.9996471   5.6845570   5.0000000
     48  1  22.4596462   5.6845570   5.0000000
     49  1  24.9196453   5.6845570   5.0000000
     50  1  27.3796425   5.6845570   5.0000000
     51  1  29.8396416   5.6845570   5.0000000
     52  1  10.1596508   7.1048379   5.0000000
     53  1  12.6196499   7.1048379   5.0000000
     54  1  15.0796490   7.1048379   5.0000000
     55  1  17.5396481   7.1048379   5.0000000
     56  1  19.9996471   7.1048379   5.0000000
     57  1  22.4596462   7.1048379   5.0000000
     58  1  24.9196453   7.1048379   5.0000000
     59  1  27.3796425   7.1048379   5.0000000
     60  1  29.8396416   7.1048379   5.0000000
     61  1  11.3896503   7.8149786   5.0000000
     62  1  13.8496494   7.8149786   5.0000000
     63  1  16.3096485   7.8149786   5.0000000
     64  1  18.7696476   7.8149786   5.0000000
     65  1  21.2296467   7.8149786   5.0000000
     66  1  23.6896458   7.8149786   5.0000000
     67  1  26.1496429   7.8149786   5.0000000
     68  1  28.6096420   7.8149786   5.0000000
     69  1  11.3896503   9.2352591   5.0000000
     70  1  13.8496494   9.2352591   5.0000000
     71  1  16.3096485   9.2352591   5.0000000
     72  1  18.7696476   9.2352591   5.0000000
     73  1  21.2296467   9.2352591   5.0000000
     74  1  23.6896458   9.2352591   5.0000000
     75  1  26.1496429   9.2352591   5.0000000
     76  1  28.6096420   9.2352591   5.0000000
     77  1  10.1596508   9.9454002   5.0000000
     78  1  12.6196499   9.9454002   5.0000000
     79  1  15.0796490   9.9454002   5.0000000
     80  1  17.5396481   9.9454002   5.0000000
     81  1  19.9996471   9.9454002   5.0000000
     82  1  22.4596462   9.9454002   5.0000000
     83  1  24.9196453   9.9454002   5.0000000
     84  1  27.3796425   9.9454002   5.0000000
     85  1  29.8396416   9.9454002   5.0000000
     86  1  10.1596508  11.3656807   5.0000000
     87  1  12.6196499  11.3656807   5.0000000
     88  1  15.0796490  11.3656807   5.0000000
     89  1  17.5396481  11.3656807   5.0000000
     90  1  19.9996471  11.3656807   5.0000000
     91  1  22.4596462  11.3656807   5.0000000
     92  1  24.9196453  11.3656807   5.0000000
     93  1  27.3796425  11.3656807   5.0000000
     94  1  29.8396416  11.3656807   5.0000000
     95  1  11.3896503  12.0758219   5.0000000
     96  1  13.8496494  12.0758219   5.0000000
     97  1  16.3096485  12.0758219   5.0000000
     98  1  18.7696476  12.0758219   5.0000000
     99  1  21.2296467  12.0758219   5.0000000
    100  1  23.6896458  12.0758219   5.0000000
    101  1  26.1496429  12.0758219   5.0000000
    102  1  28.6096420  12.0758219   5.0000000
    103  1  11.3896503  13.4961023   5.0000000
    104  1  13.8496494  13.4961023   5.0000000
    105  1  16.3096485  13.4961023   5.0000000
    106  1  18.7696476  13.4961023   5.0000000
    107  1  21.2296467  13.4961023   5.0000000
    108  1  23.6896458  13.4961023   5.0000000
    109  1  26.1496429  13.4961023   5.0000000
    110  1  28.6096420  13.4961023   5.0000000
    111  1  10.1596508  14.2062426   5.0000000
    112  1  12.6196499  14.2062426   5.0000000
    113  1  15.0796490  14.2062426   5.0000000
    114  1  17.5396481  14.2062426   5.0000000
    115  1  19.9996471  14.2062426   5.0000000
    116  1  22.4596462  14.2062426   5.0000000
    117  1  24.9196453  14.2062426   5.0000000
    118  1  27.3796425  14.2062426   5.0000000
    119  1  29.8396416  14.2062426   5.0000000
    120  1  10.1596508  15.6265240   5.0000000
    121  1  12.6196499  15.6265240   5.0000000
    122  1  15.0796490  15.6265240   5.0000000
    123  1  17.5396481  15.6265240   5.0000000
    124  1  19.9996471  15.6265240   5.0000000
    125  1  22.4596462  15.6265240   5.0000000
    126  1  24.9196453  15.6265240   5.0000000
    127  1  27.3796425  15.6265240   5.0000000
    128  1  29.8396416  15.6265240   5.0000000
    129  1  11.3896503  16.3366642   5.0000000
    130  1  13.8496494  16.3366642   5.0000000
    131  1  16.3096485  16.3366642   5.0000000
    132  1  18.7696476  16.3366642   5.0000000
    133  1  21.2296467  16.3366642   5.0000000
    134  1  23.6896458  16.3366642   5.0000000
    135  1  26.1496429  16.3366642   5.0000000
    136  1  28.6096420  16.3366642   5.0000000
    137  1  11.3896503  17.7569447   5.0000000
    138  1  13.8496494  17.7569447   5.0000000
    139  1  16.3096485  17.7569447   5.0000000
    140  1  18.7696476  17.7569447   5.0000000
    141  1  21.2296467  17.7569447   5.0000000
    142  1  23.6896458  17.7569447   5.0000000
    143  1  26.1496429  17.7569447   5.0000000
    144  1  28.6096420  17.7569447   5.0000000
    145  1  10.1596508  18.4670868   5.0000000
    146  1  12.6196499  18.4670868   5.0000000
    147  1  15.0796490  18.4670868   5.0000000
    148  1  17.5396481  18.4670868   5.0000000
    149  1  19.9996471  18.4670868   5.0000000
    150  1  22.4596462  18.4670868   5.0000000
    151  1  24.9196453  18.4670868   5.0000000
    152  1  27.3796425  18.4670868   5.0000000
    153  1  29.8396416  18.4670868   5.0000000
    154  1  10.1596508  19.8873672   5.0000000
    155  1  12.6196499  19.8873672   5.0000000
    156  1  15.0796490  19.8873672   5.0000000
    157  1  17.5396481  19.8873672   5.0000000
    158  1  19.9996471  19.8873672   5.0000000
    159  1  22.4596462  19.8873672   5.0000000
    160  1  24.9196453  19.8873672   5.0000000
    161  1  27.3796425  19.8873672   5.0000000
    162  1  29.8396416  19.8873672   5.0000000
    163  1  11.3896503  20.5975075   5.0000000
    164  1  13.8496494  20.5975075   5.0000000
    165  1  16.3096485  20.5975075   5.0000000
    166  1  18.7696476  20.5975075   5.0000000
    167  1  21.2296467  20.5975075   5.0000000
    168  1  23.6896458  20.5975075   5.0000000
    169  1  26.1496429  20.5975075   5.0000000
    170  1  28.6096420  20.5975075   5.0000000
    171  1  11.3896503  22.0177879   5.0000000
    172  1  13.8496494  22.0177879   5.0000000
    173  1  16.3096485  22.0177879   5.0000000
    174  1  18.7696476  22.0177879   5.0000000
    175  1  21.2296467  22.0177879   5.0000000
    176  1  23.6896458  22.0177879   5.0000000
    177  1  26.1496429  22.0177879   5.0000000
    178  1  28.6096420  22.0177879   5.0000000
    179  1  10.1596508  22.7279282   5.0000000
    180  1  12.6196499  22.7279282   5.0000000
    181  1  15.0796490  22.7279282   5.0000000
    182  1  17.5396481  22.7279282   5.0000000
    183  1  19.9996471  22.7279282   5.0000000
    184  1  22.4596462  22.7279282   5.0000000
    185  1  24.9196453  22.7279282   5.0000000
    186  1  27.3796425  22.7279282   5.0000000
    187  1  29.8396416  22.7279282   5.0000000
    188  1  10.1596508  24.1482105   5.0000000
    189  1  12.6196499  24.1482105   5.0000000
    190  1  15.0796490  24.1482105   5.0000000
    191  1  17.5396481  24.1482105   5.0000000
    192  1  19.9996471  24.1482105   5.0000000
    193  1  22.4596462  24.1482105   5.0000000
    194  1  24.9196453  24.1482105   5.0000000
    195  1  27.3796425  24.1482105   5.0000000
    196  1  29.8396416  24.1482105   5.0000000
    197  1  11.3896503  24.8583508   5.0000000
    198  1  13.8496494  24.8583508   5.0000000
    199  1  16.3096485  24.8583508   5.0000000
    200  1  18.7696476  24.8583508   5.0000000
    201  1  21.2296467  24.8583508   5.0000000
    202  1  23.6896458  24.8583508   5.0000000
    203  1  26.1496429  24.8583508   5.0000000
    204  1  28.6096420  24.8583508   5.0000000
    205  1  11.3896503  26.2786312   5.0000000
    206  1  13.8496494  26.2786312   5.0000000
    207  1  16.3096485  26.2786312   5.0000000
    208  1  18.7696476  26.2786312   5.0000000
    209  1  21.2296467  26.2786312   5.0000000
    210  1  23.6896458  26.2786312   5.0000000
    211  1  26.1496429  26.2786312   5.0000000
    212  1  28.6096420  26.2786312   5.0000000
    213  1  10.1596508  26.9887714   5.0000000
    214  1  12.6196499  26.9887714   5.0000000
    215  1  15.0796490  26.9887714   5.0000000
    216  1  17.5396481  26.9887714   5.0000000
    217  1  19.9996471  26.9887714   5.0000000
    218  1  22.4596462  26.9887714   5.0000000
    219  1  24.9196453  26.9887714   5.0000000
    220  1  27.3796425  26.9887714   5.0000000
    221  1  29.8396416  26.9887714   5.0000000
    222  1  10.1596508  28.4090538   5.0000000
    223  1  12.6196499  28.4090538   5.0000000
    224  1  15.0796490  28.4090538   5.0000000
    225  1  17.5396481  28.4090538   5.0000000
    226  1  19.9996471  28.4090538   5.0000000
    227  1  22.4596462  28.4090538   5.0000000
    228  1  24.9196453  28.4090538   5.0000000
    229  1  27.3796425  28.4090538   5.0000000
    230  1  29.8396416  28.4090538   5.0000000
    231  1  11.3896503  29.1191940   5.0000000
    232  1  13.8496494  29.1191940   5.0000000
    233  1  16.3096485  29.1191940   5.0000000
    234  1  18.7696476  29.1191940   5.0000000
    235  1  21.2296467  29.1191940   5.0000000
    236  1  23.6896458  29.1191940   5.0000000
    237  1  26.1496429  29.1191940   5.0000000
    238  1  28.6096420  29.1191940   5.0000000
    239  1  11.3896503  30.5394745   5.0000000
    240  1  13.8496494  30.5394745   5.0000000
    241  1  16.3096485  30.5394745   5.0000000
    242  1  18.7696476  30.5394745   5.0000000
    243  1  21.2296467  30.5394745   5.0000000
    244  1  23.6896458  30.5394745   5.0000000
    245  1  26.1496429  30.5394745   5.0000000
    246  1  28.6096420  30.5394745   5.0000000
    247  1  10.1596508  31.2496147   5.0000000
    248  1  12.6196499  31.2496147   5.0000000
    249  1  15.0796490  31.2496147   5.0000000
    250  1  17.5396481  31.2496147   5.0000000
    251  1  19.9996471  31.2496147   5.0000000
    252  1  22.4596462  31.2496147   5.0000000
    253  1  24.9196453  31.2496147   5.0000000
    254  1  27.3796425  31.2496147   5.0000000
    255  1  29.8396416  31.2496147   5.0000000
    256  1  10.1596508  32.6698952   5.0000000
    257  1  12.6196499  32.6698952   5.0000000
    258  1  15.0796490  32.6698952   5.0000000
    259  1  17.5396481  32.6698952   5.0000000
    260  1  19.9996471  32.6698952   5.0000000
    261  1  22.4596462  32.6698952   5.0000000
    262  1  24.9196453  32.6698952   5.0000000
    263  1  27.3796425  32.6698952   5.0000000
    264  1  29.8396416  32.6698952   5.0000000
    265  1  11.3896503  33.3800354   5.0000000
    266  1  13.8496494  33.3800354   5.0000000
    267  1  16.3096485  33.3800354   5.0000000
    268  1  18.7696476  33.3800354   5.0000000
    269  1  21.2296467  33.3800354   5.0000000
    270  1  23.6896458  33.3800354   5.0000000
    271  1  26.1496429  33.3800354   5.0000000
    272  1  28.6096420  33.3800354   5.0000000
    273  1  11.3896503  34.8003159   5.0000000
    274  1  13.8496494  34.8003159   5.0000000
    275  1  16.3096485  34.8003159   5.0000000
    276  1  18.7696476  34.8003159   5.0000000
    277  1  21.2296467  34.8003159   5.0000000
    278  1  23.6896458  34.8003159   5.0000000
    279  1  26.1496429  34.8003159   5.0000000
    280  1  28.6096420  34.8003159   5.0000000
    281  1  10.1596508  35.5104561   5.0000000
    282  1  12.6196499  35.5104561   5.0000000
    283  1  15.0796490  35.5104561   5.0000000
    284  1  17.5396481  35.5104561   5.0000000
    285  1  19.9996471  35.5104561   5.0000000
    286  1  22.4596462  35.5104561   5.0000000
    287  1  24.9196453  35.5104561   5.0000000
    288  1  27.3796425  35.5104561   5.0000000
    289  1  29.8396416  35.5104561   5.0000000
    290  1  10.1596508  36.9307404   5.0000000
    291  1  12.6196499  36.9307404   5.0000000
    292  1  15.0796490  36.9307404   5.0000000
    293  1  17.5396481  36.9307404   5.0000000
    294  1  19.9996471  36.9307404   5.0000000
    295  1  22.4596462  36.9307404   5.0000000
    296  1  24.9196453  36.9307404   5.0000000
    297  1  27.3796425  36.9307404   5.0000000
    298  1  29.8396416  36.9307404   5.0000000
    299  1  11.3896503  37.6408806   5.0000000
    300  1  13.8496494  37.6408806   5.0000000
    301  1  16.3096485  37.6408806   5.0000000
    302  1  18.7696476  37.6408806   5.0000000
    303  1  21.2296467  37.6408806   5.0000000
    304  1  23.6896458  37.6408806   5.0000000
    305  1  26.1496429  37.6408806   5.0000000
    306  1  28.6096420  37.6408806   5.0000000
    307  1  11.3896503  39.0611610   5.0000000
    308  1  13.8496494  39.0611610   5.0000000
    309  1  16.3096485  39.0611610   5.0000000
    310  1  18.7696476  39.0611610   5.0000000
    311  1  21.2296467  39.0611610   5.0000000
    312  1  23.6896458  39.0611610   5.0000000
    313  1  26.1496429  39.0611610   5.0000000
    314  1  28.6096420  39.0611610   5.0000000
    315  1  10.1596508  39.7713013   5.0000000
    316  1  12.6196499  39.7713013   5.0000000
    317  1  15.0796490  39.7713013   5.0000000
    318  1  17.5396481  39.7713013   5.0000000
    319  1  19.9996471  39.7713013   5.0000000
    320  1  22.4596462  39.7713013   5.0000000
    321  1  24.9196453  39.7713013   5.0000000
    322  1  27.3796425  39.7713013   5.0000000
    323  1  29.8396416  39.7713013   5.0000000
    324  1  10.1596508  41.1915817   5.0000000
    325  1  12.6196499  41.1915817   5.0000000
    326  1  15.0796490  41.1915817   5.0000000
    327  1  17.5396481  41.1915817   5.0000000
    328  1  19.9996471  41.1915817   5.0000000
    329  1  22.4596462  41.1915817   5.0000000
    330  1  24.9196453  41.1915817   5.0000000
    331  1  27.3796425  41.1915817   5.0000000
    332  1  29.8396416  41.1915817   5.0000000
    333  1  11.3896503  41.9017220   5.0000000
    334  1  13.8496494  41.9017220   5.0000000
    335  1  16.3096485  41.9017220   5.0000000
    336  1  18.7696476  41.9017220   5.0000000
    337  1  21.2296467  41.9017220   5.0000000
    338  1  23.6896458  41.9017220   5.0000000
    339  1  26.1496429  41.9017220   5.0000000
    340  1  28.6096420  41.9017220   5.0000000
    341  1  11.3896503 128.5388641   5.0000000
    342  1  13.8496494 128.5388641   5.0000000
    343  1  16.3096485 128.5388641   5.0000000
    344  1  18.7696476 128.5388641   5.0000000
    345  1  21.2296467 128.5388641   5.0000000
    346  1  23.6896458 128.5388641   5.0000000
    347  1  26.1496429 128.5388641   5.0000000
    348  1  28.6096420 128.5388641   5.0000000
    349  1  10.1596508 129.2490082   5.0000000
    350  1  12.6196499 129.2490082   5.0000000
    351  1  15.0796490 129.2490082   5.0000000
    352  1  17.5396481 129.2490082   5.0000000
    353  1  19.9996471 129.2490082   5.0000000
    354  1  22.4596462 129.2490082   5.0000000
    355  1  24.9196453 129.2490082   5.0000000
    356  1  27.3796425 129.2490082   5.0000000
    357  1  29.8396416 129.2490082   5.0000000
    358  1  10.1596508 130.6692810   5.0000000
    359  1  12.6196499 130.6692810   5.0000000
    360  1  15.0796490 130.6692810   5.0000000
    361  1  17.5396481 130.6692810   5.0000000
    362  1  19.9996471 130.6692810   5.0000000
    363  1  22.4596462 130.6692810   5.0000000
    364  1  24.9196453 130.6692810   5.0000000
    365  1  27.3796425 130.6692810   5.0000000
    366  1  29.8396416 130.6692810   5.0000000
    367  1  11.3896503 131.3794250   5.0000000
    368  1  13.8496494 131.3794250   5.0000000
    369  1  16.3096485 131.3794250   5.0000000
    370  1  18.7696476 131.3794250   5.0000000
    371  1  21.2296467 131.3794250   5.0000000
    372  1  23.6896458 131.3794250   5.0000000
    373  1  26.1496429 131.3794250   5.0000000
    374  1  28.6096420 131.3794250   5.0000000
    375  1  11.3896503 132.7997131   5.0000000
    376  1  13.8496494 132.7997131   5.0000000
    377  1  16.3096485 132.7997131   5.0000000
    378  1  18.7696476 132.7997131   5.0000000
    379  1  21.2296467 132.7997131   5.0000000
    380  1  23.6896458 132.7997131   5.0000000
    381  1  26.1496429 132.7997131   5.0000000
    382  1  28.6096420 132.7997131   5.0000000
    383  1  10.1596508 133.5098419   5.0000000
    384  1  12.6196499 133.5098419   5.0000000
    385  1  15.0796490 133.5098419   5.0000000
    386  1  17.5396481 133.5098419   5.0000000
    387  1  19.9996471 133.5098419   5.0000000
    388  1  22.4596462 133.5098419   5.0000000
    389  1  24.9196453 133.5098419   5.0000000
    390  1  27.3796425 133.5098419   5.0000000
    391  1  29.8396416 133.5098419   5.0000000
    392  1  10.1596508 134.9301300   5.0000000
    393  1  12.6196499 134.9301300   5.0000000
    394  1  15.0796490 134.9301300   5.0000000
    395  1  17.5396481 134.9301300   5.0000000
    396  1  19.9996471 134.9301300   5.0000000
    397  1  22.4596462 134.9301300   5.0000000
    398  1  24.9196453 134.9301300   5.0000000
    399  1  27.3796425 134.9301300   5.0000000
    400  1  29.8396416 134.9301300   5.0000000
    401  1  11.3896503 135.6402740   5.0000000
    402  1  13.8496494 135.6402740   5.0000000
    403  1  16.3096485 135.6402740   5.0000000
    404  1  18.7696476 135.6402740   5.0000000
    405  1  21.2296467 135.6402740   5.0000000
    406  1  23.6896458 135.6402740   5.0000000
    407  1  26.1496429 135.6402740   5.0000000
    408  1  28.6096420 135.6402740   5.0000000
    409  1  11.3896503 137.0605469   5.0000000
    410  1  13.8496494 137.0605469   5.0000000
    411  1  16.3096485 137.0605469   5.0000000
    412  1  18.7696476 137.0605469   5.0000000
    413  1  21.2296467 137.0605469   5.0000000
    414  1  23.6896458 137.0605469   5.0000000
    415  1  26.1496429 137.0605469   5.0000000
    416  1  28.6096420 137.0605469   5.0000000
    417  1  10.1596508 137.7706909   5.0000000
    418  1  12.6196499 137.7706909   5.0000000
    419  1  15.0796490 137.7706909   5.0000000
    420  1  17.5396481 137.7706909   5.0000000
    421  1  19.9996471 137.7706909   5.0000000
    422  1  22.4596462 137.7706909   5.0000000
    423  1  24.9196453 137.7706909   5.0000000
    424  1  27.3796425 137.7706909   5.0000000
    425  1  29.8396416 137.7706909   5.0000000
    426  1  10.1596508 139.1909637   5.0000000
    427  1  12.6196499 139.1909637   5.0000000
    428  1  15.0796490 139.1909637   5.0000000
    429  1  17.5396481 139.1909637   5.0000000
    430  1  19.9996471 139.1909637   5.0000000
    431  1  22.4596462 139.1909637   5.0000000
    432  1  24.9196453 139.1909637   5.0000000
    433  1  27.3796425 139.1909637   5.0000000
    434  1  29.8396416 139.1909637   5.0000000
    435  1  11.3896503 139.9011078   5.0000000
    436  1  13.8496494 139.9011078   5.0000000
    437  1  16.3096485 139.9011078   5.0000000
    438  1  18.7696476 139.9011078   5.0000000
    439  1  21.2296467 139.9011078   5.0000000
    440  1  23.6896458 139.9011078   5.0000000
    441  1  26.1496429 139.9011078   5.0000000
    442  1  28.6096420 139.9011078   5.0000000
    443  1  11.3896503 141.3213959   5.0000000
    444  1  13.8496494 141.3213959   5.0000000
    445  1  16.3096485 141.3213959   5.0000000
    446  1  18.7696476 141.3213959   5.0000000
    447  1  21.2296467 141.3213959   5.0000000
    448  1  23.6896458 141.3213959   5.0000000
    449  1  26.1496429 141.3213959   5.0000000
    450  1  28.6096420 141.3213959   5.0000000
    451  1  10.1596508 142.0315399   5.0000000
    452  1  12.6196499 142.0315399   5.0000000
    453  1  15.0796490 142.0315399   5.0000000
    454  1  17.5396481 142.0315399   5.0000000
    455  1  19.9996471 142.0315399   5.0000000
    456  1  22.4596462 142.0315399   5.0000000
    457  1  24.9196453 142.0315399   5.0000000
    458  1  27.3796425 142.0315399   5.0000000
    459  1  29.8396416 142.0315399   5.0000000
    460  1  10.1596508 143.4518127   5.0000000
    461  1  12.6196499 143.4518127   5.0000000
    462  1  15.0796490 143.4518127   5.0000000
    463  1  17.5396481 143.4518127   5.0000000
    464  1  19.9996471 143.4518127   5.0000000
    465  1  22.4596462 143.4518127   5.0000000
    466  1  24.9196453 143.4518127   5.0000000
    467  1  27.3796425 143.4518127   5.0000000
    468  1  29.8396416 143.4518127   5.0000000
    469  1  11.3896503 144.1619568   5.0000000
    470  1  13.8496494 144.1619568   5.0000000
    471  1  16.3096485 144.1619568   5.0000000
    472  1  18.7696476 144.1619568   5.0000000
    473  1  21.2296467 144.1619568   5.0000000
    474  1  23.6896458 144.1619568   5.0000000
    475  1  26.1496429 144.1619568   5.0000000
    476  1  28.6096420 144.1619568   5.0000000
    477  1  11.3896503 145.5822296   5.0000000
    478  1  13.8496494 145.5822296   5.0000000
    479  1  16.3096485 145.5822296   5.0000000
    480  1  18.7696476 145.5822296   5.0000000
    481  1  21.2296467 145.5822296   5.0000000
    482  1  23.6896458 145.5822296   5.0000000
    483  1  26.1496429 145.5822296   5.0000000
    484  1  28.6096420 145.5822296   5.0000000
    485  1  10.1596508 146.2923737   5.0000000
    486  1  12.6196499 146.2923737   5.0000000
    487  1  15.0796490 146.2923737   5.0000000
    488  1  17.5396481 146.2923737   5.0000000
    489  1  19.9996471 146.2923737   5.0000000
    490  1  22.4596462 146.2923737   5.0000000
    491  1  24.9196453 146.2923737   5.0000000
    492  1  27.3796425 146.2923737   5.0000000
    493  1  29.8396416 146.2923737   5.0000000
    494  1  10.1596508 147.7126617   5.0000000
    495  1  12.6196499 147.7126617   5.0000000
    496  1  15.0796490 147.7126617   5.0000000
    497  1  17.5396481 147.7126617   5.0000000
    498  1  19.9996471 147.7126617   5.0000000
    499  1  22.4596462 147.7126617   5.0000000
    500  1  24.9196453 147.7126617   5.0000000
    501  1  27.3796425 147.7126617   5.0000000
    502  1  29.8396416 147.7126617   5.0000000
    503  1  11.3896503 148.4227905   5.0000000
    504  1  13.8496494 148.4227905   5.0000000
    505  1  16.3096485 148.4227905   5.0000000
    506  1  18.7696476 148.4227905   5.0000000
    507  1  21.2296467 148.4227905   5.0000000
    508  1  23.6896458 148.4227905   5.0000000
    509  1  26.1496429 148.4227905   5.0000000
    510  1  28.6096420 148.4227905   5.0000000
    511  1  11.3896503 149.8430786   5.0000000
    512  1  13.8496494 149.8430786   5.0000000
    513  1  16.3096485 149.8430786   5.0000000
    514  1  18.7696476 149.8430786   5.0000000
    515  1  21.2296467 149.8430786   5.0000000
    516  1  23.6896458 149.8430786   5.0000000
    517  1  26.1496429 149.8430786   5.0000000
    518  1  28.6096420 149.8430786   5.0000000
    519  1  10.1596508 150.5532227   5.0000000
    520  1  12.6196499 150.5532227   5.0000000
    521  1  15.0796490 150.5532227   5.0000000
    522  1  17.5396481 150.5532227   5.0000000
    523  1  19.9996471 150.5532227   5.0000000
    524  1  22.4596462 150.5532227   5.0000000
    525  1  24.9196453 150.5532227   5.0000000
    526  1  27.3796425 150.5532227   5.0000000
    527  1  29.8396416 150.5532227   5.0000000
    528  1  10.1596508 151.9734955   5.0000000
    529  1  12.6196499 151.9734955   5.0000000
    530  1  15.0796490 151.9734955   5.0000000
    531  1  17.5396481 151.9734955   5.0000000
    532  1  19.9996471 151.9734955   5.0000000
    533  1  22.4596462 151.9734955   5.0000000
    534  1  24.9196453 151.9734955   5.0000000
    535  1  27.3796425 151.9734955   5.0000000
    536  1  29.8396416 151.9734955   5.0000000
    537  1  11.3896503 152.6836395   5.0000000
    538  1  13.8496494 152.6836395   5.0000000
    539  1  16.3096485 152.6836395   5.0000000
    540  1  18.7696476 152.6836395   5.0000000
    541  1  21.2296467 152.6836395   5.0000000
    542  1  23.6896458 152.6836395   5.0000000
    543  1  26.1496429 152.6836395   5.0000000
    544  1  28.6096420 152.6836395   5.0000000
    545  1  11.3896503 154.1039276   5.0000000
    546  1  13.8496494 154.1039276   5.0000000
    547  1  16.3096485 154.1039276   5.0000000
    548  1  18.7696476 154.1039276   5.0000000
    549  1  21.2296467 154.1039276   5.0000000
    550  1  23.6896458 154.1039276   5.0000000
    551  1  26.1496429 154.1039276   5.0000000
    552  1  28.6096420 154.1039276   5.0000000
    553  1  10.1596508 154.8140564   5.0000000
    554  1  12.6196499 154.8140564   5.0000000
    555  1  15.0796490 154.8140564   5.0000000
    556  1  17.5396481 154.8140564   5.0000000
    557  1  19.9996471 154.8140564   5.0000000
    558  1  22.4596462 154.8140564   5.0000000
    559  1  24.9196453 154.8140564   5.0000000
    560  1  27.3796425 154.8140564   5.0000000
    561  1  29.8396416 154.8140564   5.0000000
    562  1  10.1596508 156.2343445   5.0000000
    563  1  12.6196499 156.2343445   5.0000000
    564  1  15.0796490 156.2343445   5.0000000
    565  1  17.5396481 156.2343445   5.0000000
    566  1  19.9996471 156.2343445   5.0000000
    567  1  22.4596462 156.2343445   5.0000000
    568  1  24.9196453 156.2343445   5.0000000
    569  1  27.3796425 156.2343445   5.0000000
    570  1  29.8396416 156.2343445   5.0000000
    571  1  11.3896503 156.9444885   5.0000000
    572  1  13.8496494 156.9444885   5.0000000
    573  1  16.3096485 156.9444885   5.0000000
    574  1  18.7696476 156.9444885   5.0000000
    575  1  21.2296467 156.9444885   5.0000000
    576  1  23.6896458 156.9444885   5.0000000
    577  1  26.1496429 156.9444885   5.0000000
    578  1  28.6096420 156.9444885   5.0000000
    579  1  11.3896503 158.3647614   5.0000000
    580  1  13.8496494 158.3647614   5.0000000
    581  1  16.3096485 158.3647614   5.0000000
    582  1  18.7696476 158.3647614   5.0000000
    583  1  21.2296467 158.3647614   5.0000000
    584  1  23.6896458 158.3647614   5.0000000
    585  1  26.1496429 158.3647614   5.0000000
    586  1  28.6096420 158.3647614   5.0000000
    587  1  10.1596508 159.0749054   5.0000000
    588  1  12.6196499 159.0749054   5.0000000
    589  1  15.0796490 159.0749054   5.0000000
    590  1  17.5396481 159.0749054   5.0000000
    591  1  19.9996471 159.0749054   5.0000000
    592  1  22.4596462 159.0749054   5.0000000
    593  1  24.9196453 159.0749054   5.0000000
    594  1  27.3796425 159.0749054   5.0000000
    595  1  29.8396416 159.0749054   5.0000000
    596  1  10.1596508 160.4951935   5.0000000
    597  1  12.6196499 160.4951935   5.0000000
    598  1  15.0796490 160.4951935   5.0000000
    599  1  17.5396481 160.4951935   5.0000000
    600  1  19.9996471 160.4951935   5.0000000
    601  1  22.4596462 160.4951935   5.0000000
    602  1  24.9196453 160.4951935   5.0000000
    603  1  27.3796425 160.4951935   5.0000000
    604  1  29.8396416 160.4951935   5.0000000
    605  1  11.3896503 161.2053223   5.0000000
    606  1  13.8496494 161.2053223   5.0000000
    607  1  16.3096485 161.2053223   5.0000000
    608  1  18.7696476 161.2053223   5.0000000
    609  1  21.2296467 161.2053223   5.0000000
    610  1  23.6896458 161.2053223   5.0000000
    611  1  26.1496429 161.2053223   5.0000000
    612  1  28.6096420 161.2053223   5.0000000
    613  1  11.3896503 162.6256104   5.0000000
    614  1  13.8496494 162.6256104   5.0000000
    615  1  16.3096485 162.6256104   5.0000000
    616  1  18.7696476 162.6256104   5.0000000
    617  1  21.2296467 162.6256104   5.0000000
    618  1  23.6896458 162.6256104   5.0000000
    619  1  26.1496429 162.6256104   5.0000000
    620  1  28.6096420 162.6256104   5.0000000
    621  1  10.1596508 163.3357544   5.0000000
    622  1  12.6196499 163.3357544   5.0000000
    623  1  15.0796490 163.3357544   5.0000000
    624  1  17.5396481 163.3357544   5.0000000
    625  1  19.9996471 163.3357544   5.0000000
    626  1  22.4596462 163.3357544   5.0000000
    627  1  24.9196453 163.3357544   5.0000000
    628  1  27.3796425 163.3357544   5.0000000
    629  1  29.8396416 163.3357544   5.0000000
    630  1  10.1596508 164.7560272   5.0000000
    631  1  12.6196499 164.7560272   5.0000000
    632  1  15.0796490 164.7560272   5.0000000
    633  1  17.5396481 164.7560272   5.0000000