ITEM: TIMESTEP
0
ITEM: NUMBER OF ATOMS
1128
ITEM: BOX BOUNDS pp pp pp
0.0000000000000000e+00 4.0000000000000000e+01
0.0000000000000000e+00 1.7043370060000001e+02
0.0000000000000000e+00 1.0000000000000000e+01
ITEM: ATOMS id type xs ys zs fx fy fz 
681 2 0.22931 0.00500907 0.5 1.07322 0.619624 0 
683 2 0.22931 0.0200312 0.5 1.07322 -0.619624 0 
685 2 0.22931 0.0300091 0.5 1.07322 0.619627 0 
687 2 0.22931 0.0450312 0.5 1.07322 -0.619627 0 
689 2 0.22931 0.0550091 0.5 1.07322 0.619629 0 
691 2 0.22931 0.0700312 0.5 1.07322 -0.619629 0 
693 2 0.22931 0.0800091 0.5 1.07322 0.619623 0 
695 2 0.22931 0.0950312 0.5 1.07322 -0.619623 0 
697 2 0.22931 0.105009 0.5 1.07323 0.619637 0 
699 2 0.22931 0.120031 0.5 1.07322 -0.619621 0 
701 2 0.22931 0.130009 0.5 1.07322 0.619625 0 
703 2 0.22931 0.145031 0.5 1.07322 -0.619625 0 
705 2 0.22931 0.155009 0.5 1.07322 0.619625 0 
707 2 0.22931 0.170031 0.5 1.07322 -0.619625 0 
709 2 0.22931 0.180009 0.5 1.07322 0.619621 0 
711 2 0.22931 0.195031 0.5 1.07322 -0.619621 0 
713 2 0.22931 0.205009 0.5 1.07321 0.619629 0 
715 2 0.22931 0.220031 0.5 1.07321 -0.619629 0 
717 2 0.22931 0.230009 0.5 1.07322 0.619621 0 
719 2 0.22931 0.245031 0.5 1.07322 -0.619621 0 
809 2 0.22931 0.755009 0.5 1.07328 0.619671 0 
811 2 0.22931 0.770031 0.5 1.07328 -0.619671 0 
813 2 0.22931 0.780009 0.5 1.07316 0.619571 0 
815 2 0.22931 0.795031 0.5 1.07315 -0.619571 0 
817 2 0.22931 0.805009 0.5 1.07328 0.619671 0 
819 2 0.22931 0.820031 0.5 1.07328 -0.619672 0 
821 2 0.22931 0.830009 0.5 1.07328 0.619671 0 
823 2 0.22931 0.845031 0.5 1.07328 -0.619672 0 
825 2 0.22931 0.855009 0.5 1.07315 0.61957 0 
827 2 0.22931 0.870031 0.5 1.07316 -0.619572 0 
829 2 0.22931 0.880009 0.5 1.07328 0.619672 0 
831 2 0.22931 0.895031 0.5 1.07328 -0.619671 0 
833 2 0.22931 0.905009 0.5 1.07316 0.619572 0 
835 2 0.22931 0.920031 0.5 1.07315 -0.61957 0 
837 2 0.22931 0.930009 0.5 1.07326 0.619702 0 
839 2 0.22931 0.945031 0.5 1.07316 -0.619571 0 
841 2 0.22931 0.955009 0.5 1.07328 0.619671 0 
843 2 0.22931 0.970031 0.5 1.07328 -0.619671 0 
845 2 0.22931 0.980009 0.5 1.07315 0.61957 0 
847 2 0.22931 0.995031 0.5 1.07316 -0.619572 0 
1 1 0.284741 0.00418681 0.5 0 0 0 
9 1 0.253991 0.00835348 0.5 0 0 0 
10 1 0.315491 0.00835348 0.5 0 0 0 
18 1 0.253991 0.0166868 0.5 0 0 0 
19 1 0.315491 0.0166868 0.5 0 0 0 
2 1 0.346241 0.00418681 0.5 0 0 0 
3 1 0.407741 0.00418681 0.5 0 0 0 
11 1 0.376991 0.00835348 0.5 0 0 0 
20 1 0.376991 0.0166868 0.5 0 0 0 
4 1 0.469241 0.00418681 0.5 0 0 0 
12 1 0.438491 0.00835348 0.5 0 0 0 
13 1 0.499991 0.00835348 0.5 0 0 0 
21 1 0.438491 0.0166868 0.5 0 0 0 
22 1 0.499991 0.0166868 0.5 0 0 0 
27 1 0.284741 0.0208535 0.5 0 0 0 
35 1 0.284741 0.0291868 0.5 0 0 0 
43 1 0.253991 0.0333535 0.5 0 0 0 
44 1 0.315491 0.0333535 0.5 0 0 0 
28 1 0.346241 0.0208535 0.5 0 0 0 
29 1 0.407741 0.0208535 0.5 0 0 0 
36 1 0.346241 0.0291868 0.5 0 0 0 
37 1 0.407741 0.0291868 0.5 0 0 0 
45 1 0.376991 0.0333535 0.5 0 0 0 
30 1 0.469241 0.0208535 0.5 0 0 0 
38 1 0.469241 0.0291868 0.5 0 0 0 
46 1 0.438491 0.0333535 0.5 0 0 0 
47 1 0.499991 0.0333535 0.5 0 0 0 
52 1 0.253991 0.0416868 0.5 0 0 0 
53 1 0.315491 0.0416868 0.5 0 0 0 
61 1 0.284741 0.0458535 0.5 0 0 0 
69 1 0.284741 0.0541868 0.5 0 0 0 
54 1 0.376991 0.0416868 0.5 0 0 0 
62 1 0.346241 0.0458535 0.5 0 0 0 
63 1 0.407741 0.0458535 0.5 0 0 0 
70 1 0.346241 0.0541868 0.5 0 0 0 
71 1 0.407741 0.0541868 0.5 0 0 0 
55 1 0.438491 0.0416868 0.5 0 0 0 
56 1 0.499991 0.0416868 0.5 0 0 0 
64 1 0.469241 0.0458535 0.5 0 0 0 
72 1 0.469241 0.0541868 0.5 0 0 0 
77 1 0.253991 0.0583535 0.5 0 0 0 
78 1 0.315491 0.0583535 0.5 0 0 0 
86 1 0.253991 0.0666868 0.5 0 0 0 
87 1 0.315491 0.0666868 0.5 0 0 0 
95 1 0.284741 0.0708535 0.5 0 0 0 
79 1 0.376991 0.0583535 0.5 0 0 0 
88 1 0.376991 0.0666868 0.5 0 0 0 
96 1 0.346241 0.0708535 0.5 0 0 0 
97 1 0.407741 0.0708535 0.5 0 0 0 
80 1 0.438491 0.0583535 0.5 0 0 0 
81 1 0.499991 0.0583535 0.5 0 0 0 
89 1 0.438491 0.0666868 0.5 0 0 0 
90 1 0.499991 0.0666868 0.5 0 0 0 
98 1 0.469241 0.0708535 0.5 0 0 0 
103 1 0.284741 0.0791868 0.5 0 0 0 
111 1 0.253991 0.0833535 0.5 0 0 0 
112 1 0.315491 0.0833535 0.5 0 0 0 
120 1 0.253991 0.0916868 0.5 0 0 0 
121 1 0.315491 0.0916868 0.5 0 0 0 
104 1 0.346241 0.0791868 0.5 0 0 0 
105 1 0.407741 0.0791868 0.5 0 0 0 
113 1 0.376991 0.0833535 0.5 0 0 0 
122 1 0.376991 0.0916868 0.5 0 0 0 
106 1 0.469241 0.0791868 0.5 0 0 0 
114 1 0.438491 0.0833535 0.5 0 0 0 
115 1 0.499991 0.0833535 0.5 0 0 0 
123 1 0.438491 0.0916868 0.5 0 0 0 
124 1 0.499991 0.0916868 0.5 0 0 0 
129 1 0.284741 0.0958535 0.5 0 0 0 
137 1 0.284741 0.104187 0.5 0 0 0 
145 1 0.253991 0.108353 0.5 0 0 0 
146 1 0.315491 0.108353 0.5 0 0 0 
130 1 0.346241 0.0958535 0.5 0 0 0 
131 1 0.407741 0.0958535 0.5 0 0 0 
138 1 0.346241 0.104187 0.5 0 0 0 
139 1 0.407741 0.104187 0.5 0 0 0 
147 1 0.376991 0.108353 0.5 0 0 0 
132 1 0.469241 0.0958535 0.5 0 0 0 
140 1 0.469241 0.104187 0.5 0 0 0 
148 1 0.438491 0.108353 0.5 0 0 0 
149 1 0.499991 0.108353 0.5 0 0 0 
154 1 0.253991 0.116687 0.5 0 0 0 
155 1 0.315491 0.116687 0.5 0 0 0 
163 1 0.284741 0.120853 0.5 0 0 0 
171 1 0.284741 0.129187 0.5 0 0 0 
156 1 0.376991 0.116687 0.5 0 0 0 
164 1 0.346241 0.120853 0.5 0 0 0 
165 1 0.407741 0.120853 0.5 0 0 0 
172 1 0.346241 0.129187 0.5 0 0 0 
173 1 0.407741 0.129187 0.5 0 0 0 
157 1 0.438491 0.116687 0.5 0 0 0 
158 1 0.499991 0.116687 0.5 0 0 0 
166 1 0.469241 0.120853 0.5 0 0 0 
174 1 0.469241 0.129187 0.5 0 0 0 
179 1 0.253991 0.133353 0.5 0 0 0 
180 1 0.315491 0.133353 0.5 0 0 0 
188 1 0.253991 0.141687 0.5 0 0 0 
189 1 0.315491 0.141687 0.5 0 0 0 
197 1 0.284741 0.145853 0.5 0 0 0 
181 1 0.376991 0.133353 0.5 0 0 0 
190 1 0.376991 0.141687 0.5 0 0 0 
198 1 0.346241 0.145853 0.5 0 0 0 
199 1 0.407741 0.145853 0.5 0 0 0 
182 1 0.438491 0.133353 0.5 0 0 0 
183 1 0.499991 0.133353 0.5 0 0 0 
191 1 0.438491 0.141687 0.5 0 0 0 
192 1 0.499991 0.141687 0.5 0 0 0 
200 1 0.469241 0.145853 0.5 0 0 0 
205 1 0.284741 0.154187 0.5 0 0 0 
213 1 0.253991 0.158353 0.5 0 0 0 
214 1 0.315491 0.158353 0.5 0 0 0 
206 1 0.346241 0.154187 0.5 0 0 0 
207 1 0.407741 0.154187 0.5 0 0 0 
215 1 0.376991 0.158353 0.5 0 0 0 
208 1 0.469241 0.154187 0.5 0 0 0 
216 1 0.438491 0.158353 0.5 0 0 0 
217 1 0.499991 0.158353 0.5 0 0 0 
222 1 0.253991 0.166687 0.5 0 0 0 
223 1 0.315491 0.166687 0.5 0 0 0 
231 1 0.284741 0.170853 0.5 0 0 0 
239 1 0.284741 0.179187 0.5 0 0 0 
247 1 0.253991 0.183353 0.5 0 0 0 
248 1 0.315491 0.183353 0.5 0 0 0 
224 1 0.376991 0.166687 0.5 0 0 0 
232 1 0.346241 0.170853 0.5 0 0 0 
233 1 0.407741 0.170853 0.5 0 0 0 
240 1 0.346241 0.179187 0.5 0 0 0 
241 1 0.407741 0.179187 0.5 0 0 0 
249 1 0.376991 0.183353 0.5 0 0 0 
225 1 0.438491 0.166687 0.5 0 0 0 
226 1 0.499991 0.166687 0.5 0 0 0 
234 1 0.469241 0.170853 0.5 0 0 0 
242 1 0.469241 0.179187 0.5 0 0 0 
250 1 0.438491 0.183353 0.5 0 0 0 
251 1 0.499991 0.183353 0.5 0 0 0 
256 1 0.253991 0.191687 0.5 0 0 0 
257 1 0.315491 0.191687 0.5 0 0 0 
265 1 0.284741 0.195853 0.5 0 0 0 
258 1 0.376991 0.191687 0.5 0 0 0 
266 1 0.346241 0.195853 0.5 0 0 0 
267 1 0.407741 0.195853 0.5 0 0 0 
259 1 0.438491 0.191687 0.5 0 0 0 
260 1 0.499991 0.191687 0.5 0 0 0 
268 1 0.469241 0.195853 0.5 0 0 0 
273 1 0.284741 0.204187 0.5 0 0 0 
281 1 0.253991 0.208353 0.5 0 0 0 
282 1 0.315491 0.208353 0.5 0 0 0 
290 1 0.253991 0.216687 0.5 0 0 0 
291 1 0.315491 0.216687 0.5 0 0 0 
299 1 0.284741 0.220854 0.5 0 0 0 
274 1 0.346241 0.204187 0.5 0 0 0 
275 1 0.407741 0.204187 0.5 0 0 0 
283 1 0.376991 0.208353 0.5 0 0 0 
292 1 0.376991 0.216687 0.5 0 0 0 
300 1 0.346241 0.220854 0.5 0 0 0 
301 1 0.407741 0.220854 0.5 0 0 0 
276 1 0.469241 0.204187 0.5 0 0 0 
284 1 0.438491 0.208353 0.5 0 0 0 
285 1 0.499991 0.208353 0.5 0 0 0 
293 1 0.438491 0.216687 0.5 0 0 0 
294 1 0.499991 0.216687 0.5 0 0 0 
302 1 0.469241 0.220854 0.5 0 0 0 
307 1 0.284741 0.229187 0.5 0 0 0 
315 1 0.253991 0.233354 0.5 0 0 0 
316 1 0.315491 0.233354 0.5 0 0 0 
308 1 0.346241 0.229187 0.5 0 0 0 
309 1 0.407741 0.229187 0.5 0 0 0 
317 1 0.376991 0.233354 0.5 0 0 0 
310 1 0.469241 0.229187 0.5 0 0 0 
318 1 0.438491 0.233354 0.5 0 0 0 
319 1 0.499991 0.233354 0.5 0 0 0 
324 1 0.253991 0.241687 0.5 0 0 0 
325 1 0.315491 0.241687 0.5 0 0 0 
333 1 0.284741 0.245854 0.5 0 0 0 
721 2 0.284741 0.252542 0.5 1.30583e-07 -1.23924 0 
326 1 0.376991 0.241687 0.5 0 0 0 
334 1 0.346241 0.245854 0.5 0 0 0 
335 1 0.407741 0.245854 0.5 0 0 0 
722 2 0.346241 0.252542 0.5 1.30583e-07 -1.23924 0 
725 2 0.383059 0.257531 0.5 1.07324 -0.619628 0 
849 3 0.407741 0.254187 0.5 0 0 0 
327 1 0.438491 0.241687 0.5 0 0 0 
328 1 0.499991 0.241687 0.5 0 0 0 
336 1 0.469241 0.245854 0.5 0 0 0 
850 3 0.469241 0.254187 0.5 0 0 0 
853 3 0.438491 0.258353 0.5 0 0 0 
854 3 0.499991 0.258353 0.5 0 0 0 
727 2 0.383059 0.267509 0.5 1.07326 0.619661 0 
859 3 0.407741 0.270854 0.5 0 0 0 
856 3 0.438491 0.266687 0.5 0 0 0 
857 3 0.499991 0.266687 0.5 0 0 0 
860 3 0.469241 0.270854 0.5 0 0 0 
729 2 0.383059 0.282531 0.5 1.07324 -0.619628 0 
731 2 0.383059 0.292509 0.5 1.07324 0.619628 0 
863 3 0.407741 0.279187 0.5 0 0 0 
873 3 0.407741 0.295854 0.5 0 0 0 
864 3 0.469241 0.279187 0.5 0 0 0 
867 3 0.438491 0.283354 0.5 0 0 0 
868 3 0.499991 0.283354 0.5 0 0 0 
870 3 0.438491 0.291687 0.5 0 0 0 
871 3 0.499991 0.291687 0.5 0 0 0 
874 3 0.469241 0.295854 0.5 0 0 0 
733 2 0.383059 0.307531 0.5 1.07324 -0.619628 0 
877 3 0.407741 0.304187 0.5 0 0 0 
878 3 0.469241 0.304187 0.5 0 0 0 
881 3 0.438491 0.308354 0.5 0 0 0 
882 3 0.499991 0.308354 0.5 0 0 0 
735 2 0.383059 0.317509 0.5 1.07323 0.619636 0 
737 2 0.383059 0.332531 0.5 1.07323 -0.619636 0 
887 3 0.407741 0.320854 0.5 0 0 0 
891 3 0.407741 0.329187 0.5 0 0 0 
884 3 0.438491 0.316687 0.5 0 0 0 
885 3 0.499991 0.316687 0.5 0 0 0 
888 3 0.469241 0.320854 0.5 0 0 0 
892 3 0.469241 0.329187 0.5 0 0 0 
739 2 0.383059 0.342509 0.5 1.07324 0.619628 0 
901 3 0.407741 0.345854 0.5 0 0 0 
895 3 0.438491 0.333354 0.5 0 0 0 
896 3 0.499991 0.333354 0.5 0 0 0 
898 3 0.438491 0.341687 0.5 0 0 0 
899 3 0.499991 0.341687 0.5 0 0 0 
902 3 0.469241 0.345854 0.5 0 0 0 
741 2 0.383059 0.357531 0.5 1.07324 -0.619628 0 
743 2 0.383059 0.367509 0.5 1.07323 0.619636 0 
905 3 0.407741 0.354187 0.5 0 0 0 
906 3 0.469241 0.354187 0.5 0 0 0 
909 3 0.438491 0.358354 0.5 0 0 0 
910 3 0.499991 0.358354 0.5 0 0 0 
912 3 0.438491 0.366687 0.5 0 0 0 
913 3 0.499991 0.366687 0.5 0 0 0 
745 2 0.383059 0.382531 0.5 1.07323 -0.619636 0 
915 3 0.407741 0.370854 0.5 0 0 0 
919 3 0.407741 0.379187 0.5 0 0 0 
916 3 0.469241 0.370854 0.5 0 0 0 
920 3 0.469241 0.379187 0.5 0 0 0 
923 3 0.438491 0.383354 0.5 0 0 0 
924 3 0.499991 0.383354 0.5 0 0 0 
747 2 0.383059 0.392509 0.5 1.07323 0.619628 0 
929 3 0.407741 0.395854 0.5 0 0 0 
933 3 0.407741 0.404187 0.5 0 0 0 
926 3 0.438491 0.391687 0.5 0 0 0 
927 3 0.499991 0.391687 0.5 0 0 0 
930 3 0.469241 0.395854 0.5 0 0 0 
934 3 0.469241 0.404187 0.5 0 0 0 
749 2 0.383059 0.407531 0.5 1.07324 -0.619629 0 
751 2 0.383059 0.417509 0.5 1.07324 0.619629 0 
943 3 0.407741 0.420854 0.5 0 0 0 
937 3 0.438491 0.408354 0.5 0 0 0 
938 3 0.499991 0.408354 0.5 0 0 0 
940 3 0.438491 0.416687 0.5 0 0 0 
941 3 0.499991 0.416687 0.5 0 0 0 
944 3 0.469241 0.420854 0.5 0 0 0 
753 2 0.383059 0.432531 0.5 1.07323 -0.619628 0 
755 2 0.383059 0.442509 0.5 1.07324 0.619629 0 
947 3 0.407741 0.429187 0.5 0 0 0 
948 3 0.469241 0.429187 0.5 0 0 0 
951 3 0.438491 0.433354 0.5 0 0 0 
952 3 0.499991 0.433354 0.5 0 0 0 
954 3 0.438491 0.441687 0.5 0 0 0 
955 3 0.499991 0.441687 0.5 0 0 0 
757 2 0.383059 0.457531 0.5 1.07323 -0.619628 0 
957 3 0.407741 0.445854 0.5 0 0 0 
961 3 0.407741 0.454187 0.5 0 0 0 
958 3 0.469241 0.445854 0.5 0 0 0 
962 3 0.469241 0.454187 0.5 0 0 0 
965 3 0.438491 0.458354 0.5 0 0 0 
966 3 0.499991 0.458354 0.5 0 0 0 
759 2 0.383059 0.467509 0.5 1.07323 0.619644 0 
971 3 0.407741 0.470854 0.5 0 0 0 
975 3 0.407741 0.479187 0.5 0 0 0 
968 3 0.438491 0.466687 0.5 0 0 0 
969 3 0.499991 0.466687 0.5 0 0 0 
972 3 0.469241 0.470854 0.5 0 0 0 
976 3 0.469241 0.479187 0.5 0 0 0 
761 2 0.383059 0.482531 0.5 1.07323 -0.619644 0 
763 2 0.383059 0.492509 0.5 1.07323 0.619628 0 
985 3 0.407741 0.495854 0.5 0 0 0 
979 3 0.438491 0.483354 0.5 0 0 0 
980 3 0.499991 0.483354 0.5 0 0 0 
982 3 0.438491 0.491687 0.5 0 0 0 
983 3 0.499991 0.491687 0.5 0 0 0 
986 3 0.469241 0.495854 0.5 0 0 0 
765 2 0.383059 0.507531 0.5 1.07324 -0.619629 0 
767 2 0.383059 0.517509 0.5 1.07323 0.619628 0 
989 3 0.407741 0.504187 0.5 0 0 0 
990 3 0.469241 0.504187 0.5 0 0 0 
993 3 0.438491 0.508354 0.5 0 0 0 
994 3 0.499991 0.508354 0.5 0 0 0 
996 3 0.438491 0.516687 0.5 0 0 0 
997 3 0.499991 0.516687 0.5 0 0 0 
769 2 0.383059 0.532531 0.5 1.07323 -0.619627 0 
999 3 0.407741 0.520854 0.5 0 0 0 
1003 3 0.407741 0.529187 0.5 0 0 0 
1000 3 0.469241 0.520854 0.5 0 0 0 
1004 3 0.469241 0.529187 0.5 0 0 0 
1007 3 0.438491 0.533354 0.5 0 0 0 
1008 3 0.499991 0.533354 0.5 0 0 0 
771 2 0.383059 0.542509 0.5 1.07324 0.619629 0 
1013 3 0.407741 0.545854 0.5 0 0 0 
1017 3 0.407741 0.554187 0.5 0 0 0 
1010 3 0.438491 0.541687 0.5 0 0 0 
1011 3 0.499991 0.541687 0.5 0 0 0 
1014 3 0.469241 0.545854 0.5 0 0 0 
1018 3 0.469241 0.554187 0.5 0 0 0 
773 2 0.383059 0.557531 0.5 1.07323 -0.619628 0 
775 2 0.383059 0.567509 0.5 1.07324 0.619629 0 
1027 3 0.407741 0.570854 0.5 0 0 0 
1021 3 0.438491 0.558354 0.5 0 0 0 
1022 3 0.499991 0.558354 0.5 0 0 0 
1024 3 0.438491 0.566687 0.5 0 0 0 
1025 3 0.499991 0.566687 0.5 0 0 0 
1028 3 0.469241 0.570854 0.5 0 0 0 
777 2 0.383059 0.582531 0.5 1.07323 -0.619628 0 
779 2 0.383059 0.592509 0.5 1.07323 0.619628 0 
1031 3 0.407741 0.579187 0.5 0 0 0 
1032 3 0.469241 0.579187 0.5 0 0 0 
1035 3 0.438491 0.583354 0.5 0 0 0 
1036 3 0.499991 0.583354 0.5 0 0 0 
1038 3 0.438491 0.591687 0.5 0 0 0 
1039 3 0.499991 0.591687 0.5 0 0 0 
781 2 0.383059 0.607531 0.5 1.07324 -0.619629 0 
1041 3 0.407741 0.595854 0.5 0 0 0 
1045 3 0.407741 0.604187 0.5 0 0 0 
1042 3 0.469241 0.595854 0.5 0 0 0 
1046 3 0.469241 0.604187 0.5 0 0 0 
1049 3 0.438491 0.608354 0.5 0 0 0 
1050 3 0.499991 0.608354 0.5 0 0 0 
783 2 0.383059 0.617509 0.5 1.07323 0.619628 0 
1055 3 0.407741 0.620854 0.5 0 0 0 
1059 3 0.407741 0.629187 0.5 0 0 0 
1052 3 0.438491 0.616687 0.5 0 0 0 
1053 3 0.499991 0.616687 0.5 0 0 0 
1056 3 0.469241 0.620854 0.5 0 0 0 
1060 3 0.469241 0.629187 0.5 0 0 0 
785 2 0.383059 0.632531 0.5 1.07324 -0.619629 0 
787 2 0.383059 0.642509 0.5 1.07323 0.619628 0 
1069 3 0.407741 0.645854 0.5 0 0 0 
1063 3 0.438491 0.633354 0.5 0 0 0 
1064 3 0.499991 0.633354 0.5 0 0 0 
1066 3 0.438491 0.641687 0.5 0 0 0 
1067 3 0.499991 0.641687 0.5 0 0 0 
1070 3 0.469241 0.645854 0.5 0 0 0 
789 2 0.383059 0.657531 0.5 1.07323 -0.619628 0 
1073 3 0.407741 0.654187 0.5 0 0 0 
1074 3 0.469241 0.654187 0.5 0 0 0 
1077 3 0.438491 0.658354 0.5 0 0 0 
1078 3 0.499991 0.658354 0.5 0 0 0 
791 2 0.383059 0.667509 0.5 1.07324 0.619629 0 
793 2 0.383059 0.682531 0.5 1.07323 -0.619628 0 
1083 3 0.407741 0.670854 0.5 0 0 0 
1087 3 0.407741 0.679187 0.5 0 0 0 
1080 3 0.438491 0.666687 0.5 0 0 0 
1081 3 0.499991 0.666687 0.5 0 0 0 
1084 3 0.469241 0.670854 0.5 0 0 0 
1088 3 0.469241 0.679187 0.5 0 0 0 
1091 3 0.438491 0.683354 0.5 0 0 0 
1092 3 0.499991 0.683354 0.5 0 0 0 
795 2 0.383059 0.692509 0.5 1.07324 0.619629 0 
1097 3 0.407741 0.695854 0.5 0 0 0 
1094 3 0.438491 0.691687 0.5 0 0 0 
1095 3 0.499991 0.691687 0.5 0 0 0 
1098 3 0.469241 0.695854 0.5 0 0 0 
797 2 0.383059 0.707531 0.5 1.07329 -0.619694 0 
799 2 0.383059 0.717509 0.5 1.07323 0.619628 0 
1101 3 0.407741 0.704187 0.5 0 0 0 
1111 3 0.407741 0.720854 0.5 0 0 0 
1102 3 0.469241 0.704187 0.5 0 0 0 
1105 3 0.438491 0.708354 0.5 0 0 0 
1106 3 0.499991 0.708354 0.5 0 0 0 
1108 3 0.438491 0.716687 0.5 0 0 0 
1109 3 0.499991 0.716687 0.5 0 0 0 
1112 3 0.469241 0.720854 0.5 0 0 0 
801 2 0.383059 0.732531 0.5 1.07324 -0.619629 0 
1115 3 0.407741 0.729187 0.5 0 0 0 
1116 3 0.469241 0.729187 0.5 0 0 0 
1119 3 0.438491 0.733354 0.5 0 0 0 
1120 3 0.499991 0.733354 0.5 0 0 0 
341 1 0.284741 0.754187 0.5 0 0 0 
349 1 0.253991 0.758354 0.5 0 0 0 
350 1 0.315491 0.758354 0.5 0 0 0 
805 2 0.284741 0.747498 0.5 1.30581e-07 1.23925 0 
342 1 0.346241 0.754187 0.5 0 0 0 
343 1 0.407741 0.754187 0.5 0 0 0 
351 1 0.376991 0.758354 0.5 0 0 0 
803 2 0.383059 0.742509 0.5 1.07323 0.619628 0 
806 2 0.346241 0.747498 0.5 1.30581e-07 1.23925 0 
1125 3 0.407741 0.745854 0.5 0 0 0 
344 1 0.469241 0.754187 0.5 0 0 0 
352 1 0.438491 0.758354 0.5 0 0 0 
353 1 0.499991 0.758354 0.5 0 0 0 
1122 3 0.438491 0.741687 0.5 0 0 0 
1123 3 0.499991 0.741687 0.5 0 0 0 
1126 3 0.469241 0.745854 0.5 0 0 0 
358 1 0.253991 0.766687 0.5 0 0 0 
359 1 0.315491 0.766687 0.5 0 0 0 
367 1 0.284741 0.770854 0.5 0 0 0 
360 1 0.376991 0.766687 0.5 0 0 0 
368 1 0.346241 0.770854 0.5 0 0 0 
369 1 0.407741 0.770854 0.5 0 0 0 
361 1 0.438491 0.766687 0.5 0 0 0 
362 1 0.499991 0.766687 0.5 0 0 0 
370 1 0.469241 0.770854 0.5 0 0 0 
375 1 0.284741 0.779187 0.5 0 0 0 
383 1 0.253991 0.783354 0.5 0 0 0 
384 1 0.315491 0.783354 0.5 0 0 0 
392 1 0.253991 0.791687 0.5 0 0 0 
393 1 0.315491 0.791687 0.5 0 0 0 
401 1 0.284741 0.795854 0.5 0 0 0 
376 1 0.346241 0.779187 0.5 0 0 0 
377 1 0.407741 0.779187 0.5 0 0 0 
385 1 0.376991 0.783354 0.5 0 0 0 
394 1 0.376991 0.791687 0.5 0 0 0 
402 1 0.346241 0.795854 0.5 0 0 0 
403 1 0.407741 0.795854 0.5 0 0 0 
378 1 0.469241 0.779187 0.5 0 0 0 
386 1 0.438491 0.783354 0.5 0 0 0 
387 1 0.499991 0.783354 0.5 0 0 0 
395 1 0.438491 0.791687 0.5 0 0 0 
396 1 0.499991 0.791687 0.5 0 0 0 
404 1 0.469241 0.795854 0.5 0 0 0 
409 1 0.284741 0.804187 0.5 0 0 0 
417 1 0.253991 0.808354 0.5 0 0 0 
418 1 0.315491 0.808354 0.5 0 0 0 
410 1 0.346241 0.804187 0.5 0 0 0 
411 1 0.407741 0.804187 0.5 0 0 0 
419 1 0.376991 0.808354 0.5 0 0 0 
412 1 0.469241 0.804187 0.5 0 0 0 
420 1 0.438491 0.808354 0.5 0 0 0 
421 1 0.499991 0.808354 0.5 0 0 0 
426 1 0.253991 0.816687 0.5 0 0 0 
427 1 0.315491 0.816687 0.5 0 0 0 
435 1 0.284741 0.820854 0.5 0 0 0 
443 1 0.284741 0.829187 0.5 0 0 0 
428 1 0.376991 0.816687 0.5 0 0 0 
436 1 0.346241 0.820854 0.5 0 0 0 
437 1 0.407741 0.820854 0.5 0 0 0 
444 1 0.346241 0.829187 0.5 0 0 0 
445 1 0.407741 0.829187 0.5 0 0 0 
429 1 0.438491 0.816687 0.5 0 0 0 
430 1 0.499991 0.816687 0.5 0 0 0 
438 1 0.469241 0.820854 0.5 0 0 0 
446 1 0.469241 0.829187 0.5 0 0 0 
451 1 0.253991 0.833354 0.5 0 0 0 
452 1 0.315491 0.833354 0.5 0 0 0 
460 1 0.253991 0.841687 0.5 0 0 0 
461 1 0.315491 0.841687 0.5 0 0 0 
469 1 0.284741 0.845854 0.5 0 0 0 
453 1 0.376991 0.833354 0.5 0 0 0 
462 1 0.376991 0.841687 0.5 0 0 0 
470 1 0.346241 0.845854 0.5 0 0 0 
471 1 0.407741 0.845854 0.5 0 0 0 
454 1 0.438491 0.833354 0.5 0 0 0 
455 1 0.499991 0.833354 0.5 0 0 0 
463 1 0.438491 0.841687 0.5 0 0 0 
464 1 0.499991 0.841687 0.5 0 0 0 
472 1 0.469241 0.845854 0.5 0 0 0 
477 1 0.284741 0.854187 0.5 0 0 0 
485 1 0.253991 0.858354 0.5 0 0 0 
486 1 0.315491 0.858354 0.5 0 0 0 
494 1 0.253991 0.866687 0.5 0 0 0 
495 1 0.315491 0.866687 0.5 0 0 0 
478 1 0.346241 0.854187 0.5 0 0 0 
479 1 0.407741 0.854187 0.5 0 0 0 
487 1 0.376991 0.858354 0.5 0 0 0 
496 1 0.376991 0.866687 0.5 0 0 0 
480 1 0.469241 0.854187 0.5 0 0 0 
488 1 0.438491 0.858354 0.5 0 0 0 
489 1 0.499991 0.858354 0.5 0 0 0 
497 1 0.438491 0.866687 0.5 0 0 0 
498 1 0.499991 0.866687 0.5 0 0 0 
503 1 0.284741 0.870854 0.5 0 0 0 
511 1 0.284741 0.879187 0.5 0 0 0 
519 1 0.253991 0.883354 0.5 0 0 0 
520 1 0.315491 0.883354 0.5 0 0 0 
504 1 0.346241 0.870854 0.5 0 0 0 
505 1 0.407741 0.870854 0.5 0 0 0 
512 1 0.346241 0.879187 0.5 0 0 0 
513 1 0.407741 0.879187 0.5 0 0 0 
521 1 0.376991 0.883354 0.5 0 0 0 
506 1 0.469241 0.870854 0.5 0 0 0 
514 1 0.469241 0.879187 0.5 0 0 0 
522 1 0.438491 0.883354 0.5 0 0 0 
523 1 0.499991 0.883354 0.5 0 0 0 
528 1 0.253991 0.891687 0.5 0 0 0 
529 1 0.315491 0.891687 0.5 0 0 0 
537 1 0.284741 0.895854 0.5 0 0 0 
545 1 0.284741 0.904187 0.5 0 0 0 
530 1 0.376991 0.891687 0.5 0 0 0 
538 1 0.346241 0.895854 0.5 0 0 0 
539 1 0.407741 0.895854 0.5 0 0 0 
546 1 0.346241 0.904187 0.5 0 0 0 
547 1 0.407741 0.904187 0.5 0 0 0 
531 1 0.438491 0.891687 0.5 0 0 0 
532 1 0.499991 0.891687 0.5 0 0 0 
540 1 0.469241 0.895854 0.5 0 0 0 
548 1 0.469241 0.904187 0.5 0 0 0 
553 1 0.253991 0.908354 0.5 0 0 0 
554 1 0.315491 0.908354 0.5 0 0 0 
562 1 0.253991 0.916687 0.5 0 0 0 
563 1 0.315491 0.916687 0.5 0 0 0 
571 1 0.284741 0.920854 0.5 0 0 0 
555 1 0.376991 0.908354 0.5 0 0 0 
564 1 0.376991 0.916687 0.5 0 0 0 
572 1 0.346241 0.920854 0.5 0 0 0 
573 1 0.407741 0.920854 0.5 0 0 0 
556 1 0.438491 0.908354 0.5 0 0 0 
557 1 0.499991 0.908354 0.5 0 0 0 
565 1 0.438491 0.916687 0.5 0 0 0 
566 1 0.499991 0.916687 0.5 0 0 0 
574 1 0.469241 0.920854 0.5 0 0 0 
579 1 0.284741 0.929187 0.5 0 0 0 
587 1 0.253991 0.933354 0.5 0 0 0 
588 1 0.315491 0.933354 0.5 0 0 0 
596 1 0.253991 0.941687 0.5 0 0 0 
597 1 0.315491 0.941687 0.5 0 0 0 
580 1 0.346241 0.929187 0.5 0 0 0 
581 1 0.407741 0.929187 0.5 0 0 0 
589 1 0.376991 0.933354 0.5 0 0 0 
598 1 0.376991 0.941687 0.5 0 0 0 
582 1 0.469241 0.929187 0.5 0 0 0 
590 1 0.438491 0.933354 0.5 0 0 0 
591 1 0.499991 0.933354 0.5 0 0 0 
599 1 0.438491 0.941687 0.5 0 0 0 
600 1 0.499991 0.941687 0.5 0 0 0 
605 1 0.284741 0.945854 0.5 0 0 0 
613 1 0.284741 0.954187 0.5 0 0 0 
621 1 0.253991 0.958354 0.5 0 0 0 
622 1 0.315491 0.958354 0.5 0 0 0 
606 1 0.346241 0.945854 0.5 0 0 0 
607 1 0.407741 0.945854 0.5 0 0 0 
614 1 0.346241 0.954187 0.5 0 0 0 
615 1 0.407741 0.954187 0.5 0 0 0 
623 1 0.376991 0.958354 0.5 0 0 0 
608 1 0.469241 0.945854 0.5 0 0 0 
616 1 0.469241 0.954187 0.5 0 0 0 
624 1 0.438491 0.958354 0.5 0 0 0 
625 1 0.499991 0.958354 0.5 0 0 0 
630 1 0.253991 0.966687 0.5 0 0 0 
631 1 0.315491 0.966687 0.5 0 0 0 
639 1 0.284741 0.970854 0.5 0 0 0 
647 1 0.284741 0.979187 0.5 0 0 0 
632 1 0.376991 0.966687 0.5 0 0 0 
640 1 0.346241 0.970854 0.5 0 0 0 
641 1 0.407741 0.970854 0.5 0 0 0 
648 1 0.346241 0.979187 0.5 0 0 0 
649 1 0.407741 0.979187 0.5 0 0 0 
633 1 0.438491 0.966687 0.5 0 0 0 
634 1 0.499991 0.966687 0.5 0 0 0 
642 1 0.469241 0.970854 0.5 0 0 0 
650 1 0.469241 0.979187 0.5 0 0 0 
655 1 0.253991 0.983354 0.5 0 0 0 
656 1 0.315491 0.983354 0.5 0 0 0 
664 1 0.253991 0.991687 0.5 0 0 0 
665 1 0.315491 0.991687 0.5 0 0 0 
673 1 0.284741 0.995854 0.5 0 0 0 
657 1 0.376991 0.983354 0.5 0 0 0 
666 1 0.376991 0.991687 0.5 0 0 0 
674 1 0.346241 0.995854 0.5 0 0 0 
675 1 0.407741 0.995854 0.5 0 0 0 
658 1 0.438491 0.983354 0.5 0 0 0 
659 1 0.499991 0.983354 0.5 0 0 0 
667 1 0.438491 0.991687 0.5 0 0 0 
668 1 0.499991 0.991687 0.5 0 0 0 
676 1 0.469241 0.995854 0.5 0 0 0 
5 1 0.530741 0.00418681 0.5 0 0 0 
14 1 0.561491 0.00835348 0.5 0 0 0 
23 1 0.561491 0.0166868 0.5 0 0 0 
6 1 0.592241 0.00418681 0.5 0 0 0 
7 1 0.653741 0.00418681 0.5 0 0 0 
15 1 0.622991 0.00835348 0.5 0 0 0 
24 1 0.622991 0.0166868 0.5 0 0 0 
8 1 0.715241 0.00418681 0.5 0 0 0 
16 1 0.684491 0.00835348 0.5 0 0 0 
17 1 0.745991 0.00835348 0.5 0 0 0 
25 1 0.684491 0.0166868 0.5 0 0 0 
26 1 0.745991 0.0166868 0.5 0 0 0 
31 1 0.530741 0.0208535 0.5 0 0 0 
39 1 0.530741 0.0291868 0.5 0 0 0 
48 1 0.561491 0.0333535 0.5 0 0 0 
32 1 0.592241 0.0208535 0.5 0 0 0 
33 1 0.653741 0.0208535 0.5 0 0 0 
40 1 0.592241 0.0291868 0.5 0 0 0 
41 1 0.653741 0.0291868 0.5 0 0 0 
49 1 0.622991 0.0333535 0.5 0 0 0 
34 1 0.715241 0.0208535 0.5 0 0 0 
42 1 0.715241 0.0291868 0.5 0 0 0 
50 1 0.684491 0.0333535 0.5 0 0 0 
51 1 0.745991 0.0333535 0.5 0 0 0 
57 1 0.561491 0.0416868 0.5 0 0 0 
65 1 0.530741 0.0458535 0.5 0 0 0 
73 1 0.530741 0.0541868 0.5 0 0 0 
58 1 0.622991 0.0416868 0.5 0 0 0 
66 1 0.592241 0.0458535 0.5 0 0 0 
67 1 0.653741 0.0458535 0.5 0 0 0 
74 1 0.592241 0.0541868 0.5 0 0 0 
75 1 0.653741 0.0541868 0.5 0 0 0 
59 1 0.684491 0.0416868 0.5 0 0 0 
60 1 0.745991 0.0416868 0.5 0 0 0 
68 1 0.715241 0.0458535 0.5 0 0 0 
76 1 0.715241 0.0541868 0.5 0 0 0 
82 1 0.561491 0.0583535 0.5 0 0 0 
91 1 0.561491 0.0666868 0.5 0 0 0 
99 1 0.530741 0.0708535 0.5 0 0 0 
83 1 0.622991 0.0583535 0.5 0 0 0 
92 1 0.622991 0.0666868 0.5 0 0 0 
100 1 0.592241 0.0708535 0.5 0 0 0 
101 1 0.653741 0.0708535 0.5 0 0 0 
84 1 0.684491 0.0583535 0.5 0 0 0 
85 1 0.745991 0.0583535 0.5 0 0 0 
93 1 0.684491 0.0666868 0.5 0 0 0 
94 1 0.745991 0.0666868 0.5 0 0 0 
102 1 0.715241 0.0708535 0.5 0 0 0 
107 1 0.530741 0.0791868 0.5 0 0 0 
116 1 0.561491 0.0833535 0.5 0 0 0 
125 1 0.561491 0.0916868 0.5 0 0 0 
108 1 0.592241 0.0791868 0.5 0 0 0 
109 1 0.653741 0.0791868 0.5 0 0 0 
117 1 0.622991 0.0833535 0.5 0 0 0 
126 1 0.622991 0.0916868 0.5 0 0 0 
110 1 0.715241 0.0791868 0.5 0 0 0 
118 1 0.684491 0.0833535 0.5 0 0 0 
119 1 0.745991 0.0833535 0.5 0 0 0 
127 1 0.684491 0.0916868 0.5 0 0 0 
128 1 0.745991 0.0916868 0.5 0 0 0 
133 1 0.530741 0.0958535 0.5 0 0 0 
141 1 0.530741 0.104187 0.5 0 0 0 
150 1 0.561491 0.108353 0.5 0 0 0 
134 1 0.592241 0.0958535 0.5 0 0 0 
135 1 0.653741 0.0958535 0.5 0 0 0 
142 1 0.592241 0.104187 0.5 0 0 0 
143 1 0.653741 0.104187 0.5 0 0 0 
151 1 0.622991 0.108353 0.5 0 0 0 
136 1 0.715241 0.0958535 0.5 0 0 0 
144 1 0.715241 0.104187 0.5 0 0 0 
152 1 0.684491 0.108353 0.5 0 0 0 
153 1 0.745991 0.108353 0.5 0 0 0 
159 1 0.561491 0.116687 0.5 0 0 0 
167 1 0.530741 0.120853 0.5 0 0 0 
175 1 0.530741 0.129187 0.5 0 0 0 
160 1 0.622991 0.116687 0.5 0 0 0 
168 1 0.592241 0.120853 0.5 0 0 0 
169 1 0.653741 0.120853 0.5 0 0 0 
176 1 0.592241 0.129187 0.5 0 0 0 
177 1 0.653741 0.129187 0.5 0 0 0 
161 1 0.684491 0.116687 0.5 0 0 0 
162 1 0.745991 0.116687 0.5 0 0 0 
170 1 0.715241 0.120853 0.5 0 0 0 
178 1 0.715241 0.129187 0.5 0 0 0 
184 1 0.561491 0.133353 0.5 0 0 0 
193 1 0.561491 0.141687 0.5 0 0 0 
201 1 0.530741 0.145853 0.5 0 0 0 
185 1 0.622991 0.133353 0.5 0 0 0 
194 1 0.622991 0.141687 0.5 0 0 0 
202 1 0.592241 0.145853 0.5 0 0 0 
203 1 0.653741 0.145853 0.5 0 0 0 
186 1 0.684491 0.133353 0.5 0 0 0 
187 1 0.745991 0.133353 0.5 0 0 0 
195 1 0.684491 0.141687 0.5 0 0 0 
196 1 0.745991 0.141687 0.5 0 0 0 
204 1 0.715241 0.145853 0.5 0 0 0 
209 1 0.530741 0.154187 0.5 0 0 0 
218 1 0.561491 0.158353 0.5 0 0 0 
210 1 0.592241 0.154187 0.5 0 0 0 
211 1 0.653741 0.154187 0.5 0 0 0 
219 1 0.622991 0.158353 0.5 0 0 0 
212 1 0.715241 0.154187 0.5 0 0 0 
220 1 0.684491 0.158353 0.5 0 0 0 
221 1 0.745991 0.158353 0.5 0 0 0 
227 1 0.561491 0.166687 0.5 0 0 0 
235 1 0.530741 0.170853 0.5 0 0 0 
243 1 0.530741 0.179187 0.5 0 0 0 
252 1 0.561491 0.183353 0.5 0 0 0 
228 1 0.622991 0.166687 0.5 0 0 0 
236 1 0.592241 0.170853 0.5 0 0 0 
237 1 0.653741 0.170853 0.5 0 0 0 
244 1 0.592241 0.179187 0.5 0 0 0 
245 1 0.653741 0.179187 0.5 0 0 0 
253 1 0.622991 0.183353 0.5 0 0 0 
229 1 0.684491 0.166687 0.5 0 0 0 
230 1 0.745991 0.166687 0.5 0 0 0 
238 1 0.715241 0.170853 0.5 0 0 0 
246 1 0.715241 0.179187 0.5 0 0 0 
254 1 0.684491 0.183353 0.5 0 0 0 
255 1 0.745991 0.183353 0.5 0 0 0 
261 1 0.561491 0.191687 0.5 0 0 0 
269 1 0.530741 0.195853 0.5 0 0 0 
262 1 0.622991 0.191687 0.5 0 0 0 
270 1 0.592241 0.195853 0.5 0 0 0 
271 1 0.653741 0.195853 0.5 0 0 0 
263 1 0.684491 0.191687 0.5 0 0 0 
264 1 0.745991 0.191687 0.5 0 0 0 
272 1 0.715241 0.195853 0.5 0 0 0 
277 1 0.530741 0.204187 0.5 0 0 0 
286 1 0.561491 0.208353 0.5 0 0 0 
295 1 0.561491 0.216687 0.5 0 0 0 
303 1 0.530741 0.220854 0.5 0 0 0 
278 1 0.592241 0.204187 0.5 0 0 0 
279 1 0.653741 0.204187 0.5 0 0 0 
287 1 0.622991 0.208353 0.5 0 0 0 
296 1 0.622991 0.216687 0.5 0 0 0 
304 1 0.592241 0.220854 0.5 0 0 0 
305 1 0.653741 0.220854 0.5 0 0 0 
280 1 0.715241 0.204187 0.5 0 0 0 
288 1 0.684491 0.208353 0.5 0 0 0 
289 1 0.745991 0.208353 0.5 0 0 0 
297 1 0.684491 0.216687 0.5 0 0 0 
298 1 0.745991 0.216687 0.5 0 0 0 
306 1 0.715241 0.220854 0.5 0 0 0 
311 1 0.530741 0.229187 0.5 0 0 0 
320 1 0.561491 0.233354 0.5 0 0 0 
312 1 0.592241 0.229187 0.5 0 0 0 
313 1 0.653741 0.229187 0.5 0 0 0 
321 1 0.622991 0.233354 0.5 0 0 0 
314 1 0.715241 0.229187 0.5 0 0 0 
322 1 0.684491 0.233354 0.5 0 0 0 
323 1 0.745991 0.233354 0.5 0 0 0 
329 1 0.561491 0.241687 0.5 0 0 0 
337 1 0.530741 0.245854 0.5 0 0 0 
851 3 0.530741 0.254187 0.5 0 0 0 
855 3 0.561491 0.258353 0.5 0 0 0 
330 1 0.622991 0.241687 0.5 0 0 0 
338 1 0.592241 0.245854 0.5 0 0 0 
339 1 0.653741 0.245854 0.5 0 0 0 
723 2 0.653741 0.252542 0.5 2.61167e-06 -1.23924 0 
726 2 0.616923 0.257531 0.5 -1.07322 -0.619621 0 
852 3 0.592241 0.254187 0.5 0 0 0 
331 1 0.684491 0.241687 0.5 0 0 0 
332 1 0.745991 0.241687 0.5 0 0 0 
340 1 0.715241 0.245854 0.5 0 0 0 
724 2 0.715241 0.252542 0.5 1.30583e-07 -1.23924 0 
858 3 0.561491 0.266687 0.5 0 0 0 
861 3 0.530741 0.270854 0.5 0 0 0 
728 2 0.616923 0.267509 0.5 -1.07325 0.619654 0 
862 3 0.592241 0.270854 0.5 0 0 0 
865 3 0.530741 0.279187 0.5 0 0 0 
869 3 0.561491 0.283354 0.5 0 0 0 
872 3 0.561491 0.291687 0.5 0 0 0 
875 3 0.530741 0.295854 0.5 0 0 0 
730 2 0.616923 0.282531 0.5 -1.07322 -0.619621 0 
732 2 0.616923 0.292509 0.5 -1.07322 0.619621 0 
866 3 0.592241 0.279187 0.5 0 0 0 
876 3 0.592241 0.295854 0.5 0 0 0 
879 3 0.530741 0.304187 0.5 0 0 0 
883 3 0.561491 0.308354 0.5 0 0 0 
734 2 0.616923 0.307531 0.5 -1.07322 -0.619621 0 
880 3 0.592241 0.304187 0.5 0 0 0 
886 3 0.561491 0.316687 0.5 0 0 0 
889 3 0.530741 0.320854 0.5 0 0 0 
893 3 0.530741 0.329187 0.5 0 0 0 
736 2 0.616923 0.317509 0.5 -1.07321 0.619629 0 
738 2 0.616923 0.332531 0.5 -1.07321 -0.619629 0 
890 3 0.592241 0.320854 0.5 0 0 0 
894 3 0.592241 0.329187 0.5 0 0 0 
897 3 0.561491 0.333354 0.5 0 0 0 
900 3 0.561491 0.341687 0.5 0 0 0 
903 3 0.530741 0.345854 0.5 0 0 0 
740 2 0.616923 0.342509 0.5 -1.07322 0.619621 0 
904 3 0.592241 0.345854 0.5 0 0 0 
907 3 0.530741 0.354187 0.5 0 0 0 
911 3 0.561491 0.358354 0.5 0 0 0 
914 3 0.561491 0.366687 0.5 0 0 0 
742 2 0.616923 0.357531 0.5 -1.07322 -0.619621 0 
744 2 0.616923 0.367509 0.5 -1.07321 0.619629 0 
908 3 0.592241 0.354187 0.5 0 0 0 
917 3 0.530741 0.370854 0.5 0 0 0 
921 3 0.530741 0.379187 0.5 0 0 0 
925 3 0.561491 0.383354 0.5 0 0 0 
746 2 0.616923 0.382531 0.5 -1.07321 -0.619629 0 
918 3 0.592241 0.370854 0.5 0 0 0 