 # Position data
    1128 atoms
  3 atom types    680   168   280
  0.0000000  10.0000000 xlo xhi
  0.0000000  40.0000000 ylo yhi
  0.0000000 170.4337006 zlo zhi
                
 Atoms          
                
       1  1    5.000000   11.389641    0.713606
       2  1    5.000000   10.159640    1.423633
       3  1    5.000000   12.619639    1.423633
       4  1    5.000000   10.159640    2.844027
       5  1    5.000000   12.619639    2.844027
       6  1    5.000000   13.849640    0.713606
       7  1    5.000000   16.309641    0.713606
       8  1    5.000000   15.079640    1.423633
       9  1    5.000000   15.079640    2.844027
      10  1    5.000000   18.769640    0.713606
      11  1    5.000000   17.539639    1.423633
      12  1    5.000000   19.999640    1.423633
      13  1    5.000000   17.539639    2.844027
      14  1    5.000000   19.999640    2.844027
      15  1    5.000000   11.389641    3.554224
      16  1    5.000000   11.389641    4.974448
      17  1    5.000000   10.159640    5.684646
      18  1    5.000000   12.619639    5.684646
      19  1    5.000000   13.849640    3.554224
      20  1    5.000000   16.309641    3.554224
      21  1    5.000000   13.849640    4.974448
      22  1    5.000000   16.309641    4.974448
      23  1    5.000000   15.079640    5.684646
      24  1    5.000000   18.769640    3.554224
      25  1    5.000000   18.769640    4.974448
      26  1    5.000000   17.539639    5.684646
      27  1    5.000000   19.999640    5.684646
      28  1    5.000000   10.159640    7.104870
      29  1    5.000000   12.619639    7.104870
      30  1    5.000000   11.389641    7.814897
      31  1    5.000000   11.389641    9.235291
      32  1    5.000000   15.079640    7.104870
      33  1    5.000000   13.849640    7.814897
      34  1    5.000000   16.309641    7.814897
      35  1    5.000000   13.849640    9.235291
      36  1    5.000000   16.309641    9.235291
      37  1    5.000000   17.539639    7.104870
      38  1    5.000000   19.999640    7.104870
      39  1    5.000000   18.769640    7.814897
      40  1    5.000000   18.769640    9.235291
      41  1    5.000000   10.159640    9.945317
      42  1    5.000000   12.619639    9.945317
      43  1    5.000000   10.159640   11.365713
      44  1    5.000000   12.619639   11.365713
      45  1    5.000000   11.389641   12.075910
      46  1    5.000000   15.079640    9.945317
      47  1    5.000000   15.079640   11.365713
      48  1    5.000000   13.849640   12.075910
      49  1    5.000000   16.309641   12.075910
      50  1    5.000000   17.539639    9.945317
      51  1    5.000000   19.999640    9.945317
      52  1    5.000000   17.539639   11.365713
      53  1    5.000000   19.999640   11.365713
      54  1    5.000000   18.769640   12.075910
      55  1    5.000000   11.389641   13.496133
      56  1    5.000000   10.159640   14.206160
      57  1    5.000000   12.619639   14.206160
      58  1    5.000000   10.159640   15.626554
      59  1    5.000000   12.619639   15.626554
      60  1    5.000000   13.849640   13.496133
      61  1    5.000000   16.309641   13.496133
      62  1    5.000000   15.079640   14.206160
      63  1    5.000000   15.079640   15.626554
      64  1    5.000000   18.769640   13.496133
      65  1    5.000000   17.539639   14.206160
      66  1    5.000000   19.999640   14.206160
      67  1    5.000000   17.539639   15.626554
      68  1    5.000000   19.999640   15.626554
      69  1    5.000000   11.389641   16.336752
      70  1    5.000000   11.389641   17.756975
      71  1    5.000000   10.159640   18.467003
      72  1    5.000000   12.619639   18.467003
      73  1    5.000000   13.849640   16.336752
      74  1    5.000000   16.309641   16.336752
      75  1    5.000000   13.849640   17.756975
      76  1    5.000000   16.309641   17.756975
      77  1    5.000000   15.079640   18.467003
      78  1    5.000000   18.769640   16.336752
      79  1    5.000000   18.769640   17.756975
      80  1    5.000000   17.539639   18.467003
      81  1    5.000000   19.999640   18.467003
      82  1    5.000000   10.159640   19.887398
      83  1    5.000000   12.619639   19.887398
      84  1    5.000000   11.389641   20.597424
      85  1    5.000000   11.389641   22.017818
      86  1    5.000000   15.079640   19.887398
      87  1    5.000000   13.849640   20.597424
      88  1    5.000000   16.309641   20.597424
      89  1    5.000000   13.849640   22.017818
      90  1    5.000000   16.309641   22.017818
      91  1    5.000000   17.539639   19.887398
      92  1    5.000000   19.999640   19.887398
      93  1    5.000000   18.769640   20.597424
      94  1    5.000000   18.769640   22.017818
      95  1    5.000000   10.159640   22.727844
      96  1    5.000000   12.619639   22.727844
      97  1    5.000000   10.159640   24.148241
      98  1    5.000000   12.619639   24.148241
      99  1    5.000000   11.389641   24.858267
     100  1    5.000000   15.079640   22.727844
     101  1    5.000000   15.079640   24.148241
     102  1    5.000000   13.849640   24.858267
     103  1    5.000000   16.309641   24.858267
     104  1    5.000000   17.539639   22.727844
     105  1    5.000000   19.999640   22.727844
     106  1    5.000000   17.539639   24.148241
     107  1    5.000000   19.999640   24.148241
     108  1    5.000000   18.769640   24.858267
     109  1    5.000000   11.389641   26.278660
     110  1    5.000000   10.159640   26.988688
     111  1    5.000000   12.619639   26.988688
     112  1    5.000000   13.849640   26.278660
     113  1    5.000000   16.309641   26.278660
     114  1    5.000000   15.079640   26.988688
     115  1    5.000000   18.769640   26.278660
     116  1    5.000000   17.539639   26.988688
     117  1    5.000000   19.999640   26.988688
     118  1    5.000000   10.159640   28.409082
     119  1    5.000000   12.619639   28.409082
     120  1    5.000000   11.389641   29.119110
     121  1    5.000000   11.389641   30.539503
     122  1    5.000000   10.159640   31.249531
     123  1    5.000000   12.619639   31.249531
     124  1    5.000000   15.079640   28.409082
     125  1    5.000000   13.849640   29.119110
     126  1    5.000000   16.309641   29.119110
     127  1    5.000000   13.849640   30.539503
     128  1    5.000000   16.309641   30.539503
     129  1    5.000000   15.079640   31.249531
     130  1    5.000000   17.539639   28.409082
     131  1    5.000000   19.999640   28.409082
     132  1    5.000000   18.769640   29.119110
     133  1    5.000000   18.769640   30.539503
     134  1    5.000000   17.539639   31.249531
     135  1    5.000000   19.999640   31.249531
     136  1    5.000000   10.159640   32.669926
     137  1    5.000000   12.619639   32.669926
     138  1    5.000000   11.389641   33.379951
     139  1    5.000000   15.079640   32.669926
     140  1    5.000000   13.849640   33.379951
     141  1    5.000000   16.309641   33.379951
     142  1    5.000000   17.539639   32.669926
     143  1    5.000000   19.999640   32.669926
     144  1    5.000000   18.769640   33.379951
     145  1    5.000000   11.389641   34.800346
     146  1    5.000000   10.159640   35.510372
     147  1    5.000000   12.619639   35.510372
     148  1    5.000000   10.159640   36.930767
     149  1    5.000000   12.619639   36.930767
     150  1    5.000000   11.389641   37.640965
     151  1    5.000000   13.849640   34.800346
     152  1    5.000000   16.309641   34.800346
     153  1    5.000000   15.079640   35.510372
     154  1    5.000000   15.079640   36.930767
     155  1    5.000000   13.849640   37.640965
     156  1    5.000000   16.309641   37.640965
     157  1    5.000000   18.769640   34.800346
     158  1    5.000000   17.539639   35.510372
     159  1    5.000000   19.999640   35.510372
     160  1    5.000000   17.539639   36.930767
     161  1    5.000000   19.999640   36.930767
     162  1    5.000000   18.769640   37.640965
     163  1    5.000000   11.389641   39.061188
     164  1    5.000000   10.159640   39.771385
     165  1    5.000000   12.619639   39.771385
     166  1    5.000000   13.849640   39.061188
     167  1    5.000000   16.309641   39.061188
     168  1    5.000000   15.079640   39.771385
     169  1    5.000000   18.769640   39.061188
     170  1    5.000000   17.539639   39.771385
     171  1    5.000000   19.999640   39.771385
     172  1    5.000000   10.159640   41.191608
     173  1    5.000000   12.619639   41.191608
     174  1    5.000000   11.389641   41.901810
     175  1    5.000000   15.079640   41.191608
     176  1    5.000000   13.849640   41.901810
     177  1    5.000000   16.309641   41.901810
     178  1    5.000000   17.539639   41.191608
     179  1    5.000000   19.999640   41.191608
     180  1    5.000000   18.769640   41.901810
     181  1    5.000000   11.389641  128.538879
     182  1    5.000000   10.159640  129.249084
     183  1    5.000000   12.619639  129.249084
     184  1    5.000000   13.849640  128.538879
     185  1    5.000000   16.309641  128.538879
     186  1    5.000000   15.079640  129.249084
     187  1    5.000000   18.769640  128.538879
     188  1    5.000000   17.539639  129.249084
     189  1    5.000000   19.999640  129.249084
     190  1    5.000000   10.159640  130.669296
     191  1    5.000000   12.619639  130.669296
     192  1    5.000000   11.389641  131.379501
     193  1    5.000000   15.079640  130.669296
     194  1    5.000000   13.849640  131.379501
     195  1    5.000000   16.309641  131.379501
     196  1    5.000000   17.539639  130.669296
     197  1    5.000000   19.999640  130.669296
     198  1    5.000000   18.769640  131.379501
     199  1    5.000000   11.389641  132.799728
     200  1    5.000000   10.159640  133.509918
     201  1    5.000000   12.619639  133.509918
     202  1    5.000000   10.159640  134.930145
     203  1    5.000000   12.619639  134.930145
     204  1    5.000000   11.389641  135.640335
     205  1    5.000000   13.849640  132.799728
     206  1    5.000000   16.309641  132.799728
     207  1    5.000000   15.079640  133.509918
     208  1    5.000000   15.079640  134.930145
     209  1    5.000000   13.849640  135.640335
     210  1    5.000000   16.309641  135.640335
     211  1    5.000000   18.769640  132.799728
     212  1    5.000000   17.539639  133.509918
     213  1    5.000000   19.999640  133.509918
     214  1    5.000000   17.539639  134.930145
     215  1    5.000000   19.999640  134.930145
     216  1    5.000000   18.769640  135.640335
     217  1    5.000000   11.389641  137.060562
     218  1    5.000000   10.159640  137.770767
     219  1    5.000000   12.619639  137.770767
     220  1    5.000000   13.849640  137.060562
     221  1    5.000000   16.309641  137.060562
     222  1    5.000000   15.079640  137.770767
     223  1    5.000000   18.769640  137.060562
     224  1    5.000000   17.539639  137.770767
     225  1    5.000000   19.999640  137.770767
     226  1    5.000000   10.159640  139.190979
     227  1    5.000000   12.619639  139.190979
     228  1    5.000000   11.389641  139.901184
     229  1    5.000000   11.389641  141.321411
     230  1    5.000000   15.079640  139.190979
     231  1    5.000000   13.849640  139.901184
     232  1    5.000000   16.309641  139.901184
     233  1    5.000000   13.849640  141.321411
     234  1    5.000000   16.309641  141.321411
     235  1    5.000000   17.539639  139.190979
     236  1    5.000000   19.999640  139.190979
     237  1    5.000000   18.769640  139.901184
     238  1    5.000000   18.769640  141.321411
     239  1    5.000000   10.159640  142.031601
     240  1    5.000000   12.619639  142.031601
     241  1    5.000000   10.159640  143.451828
     242  1    5.000000   12.619639  143.451828
     243  1    5.000000   11.389641  144.162018
     244  1    5.000000   15.079640  142.031601
     245  1    5.000000   15.079640  143.451828
     246  1    5.000000   13.849640  144.162018
     247  1    5.000000   16.309641  144.162018
     248  1    5.000000   17.539639  142.031601
     249  1    5.000000   19.999640  142.031601
     250  1    5.000000   17.539639  143.451828
     251  1    5.000000   19.999640  143.451828
     252  1    5.000000   18.769640  144.162018
     253  1    5.000000   11.389641  145.582260
     254  1    5.000000   10.159640  146.292450
     255  1    5.000000   12.619639  146.292450
     256  1    5.000000   10.159640  147.712677
     257  1    5.000000   12.619639  147.712677
     258  1    5.000000   13.849640  145.582260
     259  1    5.000000   16.309641  145.582260
     260  1    5.000000   15.079640  146.292450
     261  1    5.000000   15.079640  147.712677
     262  1    5.000000   18.769640  145.582260
     263  1    5.000000   17.539639  146.292450
     264  1    5.000000   19.999640  146.292450
     265  1    5.000000   17.539639  147.712677
     266  1    5.000000   19.999640  147.712677
     267  1    5.000000   11.389641  148.422867
     268  1    5.000000   11.389641  149.843094
     269  1    5.000000   10.159640  150.553299
     270  1    5.000000   12.619639  150.553299
     271  1    5.000000   13.849640  148.422867
     272  1    5.000000   16.309641  148.422867
     273  1    5.000000   13.849640  149.843094
     274  1    5.000000   16.309641  149.843094
     275  1    5.000000   15.079640  150.553299
     276  1    5.000000   18.769640  148.422867
     277  1    5.000000   18.769640  149.843094
     278  1    5.000000   17.539639  150.553299
     279  1    5.000000   19.999640  150.553299
     280  1    5.000000   10.159640  151.973511
     281  1    5.000000   12.619639  151.973511
     282  1    5.000000   11.389641  152.683716
     283  1    5.000000   11.389641  154.103943
     284  1    5.000000   15.079640  151.973511
     285  1    5.000000   13.849640  152.683716
     286  1    5.000000   16.309641  152.683716
     287  1    5.000000   13.849640  154.103943
     288  1    5.000000   16.309641  154.103943
     289  1    5.000000   17.539639  151.973511
     290  1    5.000000   19.999640  151.973511
     291  1    5.000000   18.769640  152.683716
     292  1    5.000000   18.769640  154.103943
     293  1    5.000000   10.159640  154.814133
     294  1    5.000000   12.619639  154.814133
     295  1    5.000000   10.159640  156.234360
     296  1    5.000000   12.619639  156.234360
     297  1    5.000000   11.389641  156.944550
     298  1    5.000000   15.079640  154.814133
     299  1    5.000000   15.079640  156.234360
     300  1    5.000000   13.849640  156.944550
     301  1    5.000000   16.309641  156.944550
     302  1    5.000000   17.539639  154.814133
     303  1    5.000000   19.999640  154.814133
     304  1    5.000000   17.539639  156.234360
     305  1    5.000000   19.999640  156.234360
     306  1    5.000000   18.769640  156.944550
     307  1    5.000000   11.389641  158.364777
     308  1    5.000000   10.159640  159.074982
     309  1    5.000000   12.619639  159.074982
     310  1    5.000000   10.159640  160.495193
     311  1    5.000000   12.619639  160.495193
     312  1    5.000000   13.849640  158.364777
     313  1    5.000000   16.309641  158.364777
     314  1    5.000000   15.079640  159.074982
     315  1    5.000000   15.079640  160.495193
     316  1    5.000000   18.769640  158.364777
     317  1    5.000000   17.539639  159.074982
     318  1    5.000000   19.999640  159.074982
     319  1    5.000000   17.539639  160.495193
     320  1    5.000000   19.999640  160.495193
     321  1    5.000000   11.389641  161.205399
     322  1    5.000000   11.389641  162.625610
     323  1    5.000000   10.159640  163.335815
     324  1    5.000000   12.619639  163.335815
     325  1    5.000000   13.849640  161.205399
     326  1    5.000000   16.309641  161.205399
     327  1    5.000000   13.849640  162.625610
     328  1    5.000000   16.309641  162.625610
     329  1    5.000000   15.079640  163.335815
     330  1    5.000000   18.769640  161.205399
     331  1    5.000000   18.769640  162.625610
     332  1    5.000000   17.539639  163.335815
     333  1    5.000000   19.999640  163.335815
     334  1    5.000000   10.159640  164.756042
     335  1    5.000000   12.619639  164.756042
     336  1    5.000000   11.389641  165.466232
     337  1    5.000000   11.389641  166.886459
     338  1    5.000000   15.079640  164.756042
     339  1    5.000000   13.849640  165.466232
     340  1    5.000000   16.309641  165.466232
     341  1    5.000000   13.849640  166.886459
     342  1    5.000000   16.309641  166.886459
     343  1    5.000000   17.539639  164.756042
     344  1    5.000000   19.999640  164.756042
     345  1    5.000000   18.769640  165.466232
     346  1    5.000000   18.769640  166.886459
     347  1    5.000000   10.159640  167.596649
     348  1    5.000000   12.619639  167.596649
     349  1    5.000000   10.159640  169.016891
     350  1    5.000000   12.619639  169.016891
     351  1    5.000000   11.389641  169.727081
     352  1    5.000000   15.079640  167.596649
     353  1    5.000000   15.079640  169.016891
     354  1    5.000000   13.849640  169.727081
     355  1    5.000000   16.309641  169.727081
     356  1    5.000000   17.539639  167.596649
     357  1    5.000000   19.999640  167.596649
     358  1    5.000000   17.539639  169.016891
     359  1    5.000000   19.999640  169.016891
     360  1    5.000000   18.769640  169.727081
     361  1    5.000000   21.229639    0.713606
     362  1    5.000000   22.459641    1.423633
     363  1    5.000000   22.459641    2.844027
     364  1    5.000000   23.689640    0.713606
     365  1    5.000000   26.149639    0.713606
     366  1    5.000000   24.919641    1.423633
     367  1    5.000000   24.919641    2.844027
     368  1    5.000000   28.609640    0.713606
     369  1    5.000000   27.379639    1.423633
     370  1    5.000000   29.839640    1.423633
     371  1    5.000000   27.379639    2.844027
     372  1    5.000000   29.839640    2.844027
     373  1    5.000000   21.229639    3.554224
     374  1    5.000000   21.229639    4.974448
     375  1    5.000000   22.459641    5.684646
     376  1    5.000000   23.689640    3.554224
     377  1    5.000000   26.149639    3.554224
     378  1    5.000000   23.689640    4.974448
     379  1    5.000000   26.149639    4.974448
     380  1    5.000000   24.919641    5.684646
     381  1    5.000000   28.609640    3.554224
     382  1    5.000000   28.609640    4.974448
     383  1    5.000000   27.379639    5.684646
     384  1    5.000000   29.839640    5.684646
     385  1    5.000000   22.459641    7.104870
     386  1    5.000000   21.229639    7.814897
     387  1    5.000000   21.229639    9.235291
     388  1    5.000000   24.919641    7.104870
     389  1    5.000000   23.689640    7.814897
     390  1    5.000000   26.149639    7.814897
     391  1    5.000000   23.689640    9.235291
     392  1    5.000000   26.149639    9.235291
     393  1    5.000000   27.379639    7.104870
     394  1    5.000000   29.839640    7.104870
     395  1    5.000000   28.609640    7.814897
     396  1    5.000000   28.609640    9.235291
     397  1    5.000000   22.459641    9.945317
     398  1    5.000000   22.459641   11.365713
     399  1    5.000000   21.229639   12.075910
     400  1    5.000000   24.919641    9.945317
     401  1    5.000000   24.919641   11.365713
     402  1    5.000000   23.689640   12.075910
     403  1    5.000000   26.149639   12.075910
     404  1    5.000000   27.379639    9.945317
     405  1    5.000000   29.839640    9.945317
     406  1    5.000000   27.379639   11.365713
     407  1    5.000000   29.839640   11.365713
     408  1    5.000000   28.609640   12.075910
     409  1    5.000000   21.229639   13.496133
     410  1    5.000000   22.459641   14.206160
     411  1    5.000000   22.459641   15.626554
     412  1    5.000000   23.689640   13.496133
     413  1    5.000000   26.149639   13.496133
     414  1    5.000000   24.919641   14.206160
     415  1    5.000000   24.919641   15.626554
     416  1    5.000000   28.609640   13.496133
     417  1    5.000000   27.379639   14.206160
     418  1    5.000000   29.839640   14.206160
     419  1    5.000000   27.379639   15.626554
     420  1    5.000000   29.839640   15.626554
     421  1    5.000000   21.229639   16.336752
     422  1    5.000000   21.229639   17.756975
     423  1    5.000000   22.459641   18.467003
     424  1    5.000000   23.689640   16.336752
     425  1    5.000000   26.149639   16.336752
     426  1    5.000000   23.689640   17.756975
     427  1    5.000000   26.149639   17.756975
     428  1    5.000000   24.919641   18.467003
     429  1    5.000000   28.609640   16.336752
     430  1    5.000000   28.609640   17.756975
     431  1    5.000000   27.379639   18.467003
     432  1    5.000000   29.839640   18.467003
     433  1    5.000000   22.459641   19.887398
     434  1    5.000000   21.229639   20.597424
     435  1    5.000000   21.229639   22.017818
     436  1    5.000000   24.919641   19.887398
     437  1    5.000000   23.689640   20.597424
     438  1    5.000000   26.149639   20.597424
     439  1    5.000000   23.689640   22.017818
     440  1    5.000000   26.149639   22.017818
     441  1    5.000000   27.379639   19.887398
     442  1    5.000000   29.839640   19.887398
     443  1    5.000000   28.609640   20.597424
     444  1    5.000000   28.609640   22.017818
     445  1    5.000000   22.459641   22.727844
     446  1    5.000000   22.459641   24.148241
     447  1    5.000000   21.229639   24.858267
     448  1    5.000000   24.919641   22.727844
     449  1    5.000000   24.919641   24.148241
     450  1    5.000000   23.689640   24.858267
     451  1    5.000000   26.149639   24.858267
     452  1    5.000000   27.379639   22.727844
     453  1    5.000000   29.839640   22.727844
     454  1    5.000000   27.379639   24.148241
     455  1    5.000000   29.839640   24.148241
     456  1    5.000000   28.609640   24.858267
     457  1    5.000000   21.229639   26.278660
     458  1    5.000000   22.459641   26.988688
     459  1    5.000000   23.689640   26.278660
     460  1    5.000000   26.149639   26.278660
     461  1    5.000000   24.919641   26.988688
     462  1    5.000000   28.609640   26.278660
     463  1    5.000000   27.379639   26.988688
     464  1    5.000000   29.839640   26.988688
     465  1    5.000000   22.459641   28.409082
     466  1    5.000000   21.229639   29.119110
     467  1    5.000000   21.229639   30.539503
     468  1    5.000000   22.459641   31.249531
     469  1    5.000000   24.919641   28.409082
     470  1    5.000000   23.689640   29.119110
     471  1    5.000000   26.149639   29.119110
     472  1    5.000000   23.689640   30.539503
     473  1    5.000000   26.149639   30.539503
     474  1    5.000000   24.919641   31.249531
     475  1    5.000000   27.379639   28.409082
     476  1    5.000000   29.839640   28.409082
     477  1    5.000000   28.609640   29.119110
     478  1    5.000000   28.609640   30.539503
     479  1    5.000000   27.379639   31.249531
     480  1    5.000000   29.839640   31.249531
     481  1    5.000000   22.459641   32.669926
     482  1    5.000000   21.229639   33.379951
     483  1    5.000000   24.919641   32.669926
     484  1    5.000000   23.689640   33.379951
     485  1    5.000000   26.149639   33.379951
     486  1    5.000000   27.379639   32.669926
     487  1    5.000000   29.839640   32.669926
     488  1    5.000000   28.609640   33.379951
     489  1    5.000000   21.229639   34.800346
     490  1    5.000000   22.459641   35.510372
     491  1    5.000000   22.459641   36.930767
     492  1    5.000000   21.229639   37.640965
     493  1    5.000000   23.689640   34.800346
     494  1    5.000000   26.149639   34.800346
     495  1    5.000000   24.919641   35.510372
     496  1    5.000000   24.919641   36.930767
     497  1    5.000000   23.689640   37.640965
     498  1    5.000000   26.149639   37.640965
     499  1    5.000000   28.609640   34.800346
     500  1    5.000000   27.379639   35.510372
     501  1    5.000000   29.839640   35.510372
     502  1    5.000000   27.379639   36.930767
     503  1    5.000000   29.839640   36.930767
     504  1    5.000000   28.609640   37.640965
     505  1    5.000000   21.229639   39.061188
     506  1    5.000000   22.459641   39.771385
     507  1    5.000000   23.689640   39.061188
     508  1    5.000000   26.149639   39.061188
     509  1    5.000000   24.919641   39.771385
     510  1    5.000000   28.609640   39.061188
     511  1    5.000000   27.379639   39.771385
     512  1    5.000000   29.839640   39.771385
     513  1    5.000000   22.459641   41.191608
     514  1    5.000000   21.229639   41.901810
     515  1    5.000000   24.919641   41.191608
     516  1    5.000000   23.689640   41.901810
     517  1    5.000000   26.149639   41.901810
     518  1    5.000000   27.379639   41.191608
     519  1    5.000000   29.839640   41.191608
     520  1    5.000000   28.609640   41.901810
     521  1    5.000000   21.229639  128.538879
     522  1    5.000000   22.459641  129.249084
     523  1    5.000000   23.689640  128.538879
     524  1    5.000000   26.149639  128.538879
     525  1    5.000000   24.919641  129.249084
     526  1    5.000000   28.609640  128.538879
     527  1    5.000000   27.379639  129.249084
     528  1    5.000000   29.839640  129.249084
     529  1    5.000000   22.459641  130.669296
     530  1    5.000000   21.229639  131.379501
     531  1    5.000000   24.919641  130.669296
     532  1    5.000000   23.689640  131.379501
     533  1    5.000000   26.149639  131.379501
     534  1    5.000000   27.379639  130.669296
     535  1    5.000000   29.839640  130.669296
     536  1    5.000000   28.609640  131.379501
     537  1    5.000000   21.229639  132.799728
     538  1    5.000000   22.459641  133.509918
     539  1    5.000000   22.459641  134.930145
     540  1    5.000000   21.229639  135.640335
     541  1    5.000000   23.689640  132.799728
     542  1    5.000000   26.149639  132.799728
     543  1    5.000000   24.919641  133.509918
     544  1    5.000000   24.919641  134.930145
     545  1    5.000000   23.689640  135.640335
     546  1    5.000000   26.149639  135.640335
     547  1    5.000000   28.609640  132.799728
     548  1    5.000000   27.379639  133.509918
     549  1    5.000000   29.839640  133.509918
     550  1    5.000000   27.379639  134.930145
     551  1    5.000000   29.839640  134.930145
     552  1    5.000000   28.609640  135.640335
     553  1    5.000000   21.229639  137.060562
     554  1    5.000000   22.459641  137.770767
     555  1    5.000000   23.689640  137.060562
     556  1    5.000000   26.149639  137.060562
     557  1    5.000000   24.919641  137.770767
     558  1    5.000000   28.609640  137.060562
     559  1    5.000000   27.379639  137.770767
     560  1    5.000000   29.839640  137.770767
     561  1    5.000000   22.459641  139.190979
     562  1    5.000000   21.229639  139.901184
     563  1    5.000000   21.229639  141.321411
     564  1    5.000000   24.919641  139.190979
     565  1    5.000000   23.689640  139.901184
     566  1    5.000000   26.149639  139.901184
     567  1    5.000000   23.689640  141.321411
     568  1    5.000000   26.149639  141.321411
     569  1    5.000000   27.379639  139.190979
     570  1    5.000000   29.839640  139.190979
     571  1    5.000000   28.609640  139.901184
     572  1    5.000000   28.609640  141.321411
     573  1    5.000000   22.459641  142.031601
     574  1    5.000000   22.459641  143.451828
     575  1    5.000000   21.229639  144.162018
     576  1    5.000000   24.919641  142.031601
     577  1    5.000000   24.919641  143.451828
     578  1    5.000000   23.689640  144.162018
     579  1    5.000000   26.149639  144.162018
     580  1    5.000000   27.379639  142.031601
     581  1    5.000000   29.839640  142.031601
     582  1    5.000000   27.379639  143.451828
     583  1    5.000000   29.839640  143.451828
     584  1    5.000000   28.609640  144.162018
     585  1    5.000000   21.229639  145.582260
     586  1    5.000000   22.459641  146.292450
     587  1    5.000000   22.459641  147.712677
     588  1    5.000000   23.689640  145.582260
     589  1    5.000000   26.149639  145.582260
     590  1    5.000000   24.919641  146.292450
     591  1    5.000000   24.919641  147.712677
     592  1    5.000000   28.609640  145.582260
     593  1    5.000000   27.379639  146.292450
     594  1    5.000000   29.839640  146.292450
     595  1    5.000000   27.379639  147.712677
     596  1    5.000000   29.839640  147.712677
     597  1    5.000000   21.229639  148.422867
     598  1    5.000000   21.229639  149.843094
     599  1    5.000000   22.459641  150.553299
     600  1    5.000000   23.689640  148.422867
     601  1    5.000000   26.149639  148.422867
     602  1    5.000000   23.689640  149.843094
     603  1    5.000000   26.149639  149.843094
     604  1    5.000000   24.919641  150.553299
     605  1    5.000000   28.609640  148.422867
     606  1    5.000000   28.609640  149.843094
     607  1    5.000000   27.379639  150.553299
     608  1    5.000000   29.839640  150.553299
     609  1    5.000000   22.459641  151.973511
     610  1    5.000000   21.229639  152.683716
     611  1    5.000000   21.229639  154.103943
     612  1    5.000000   24.919641  151.973511
     613  1    5.000000   23.689640  152.683716
     614  1    5.000000   26.149639  152.683716
     615  1    5.000000   23.689640  154.103943
     616  1    5.000000   26.149639  154.103943
     617  1    5.000000   27.379639  151.973511
     618  1    5.000000   29.839640  151.973511
     619  1    5.000000   28.609640  152.683716
     620  1    5.000000   28.609640  154.103943